96
 Atoms. Timestep: 0
2 0 7.95642 4.74695
2 4.63304 0 11.358
2 0 4.63304 4.74695
2 7.95642 0 11.358
2 0 4.63304 8.47514
2 7.95642 0 1.8641
2 0 7.95642 8.47514
2 4.63304 0 1.8641
2 10.7421 8.43088 6.61105
2 4.15858 10.7421 0
2 1.84736 4.15858 6.61105
2 8.43088 1.84736 0
2 1.84736 8.43088 6.61105
2 8.43088 10.7421 0
2 10.7421 4.15858 6.61105
2 4.15858 1.84736 0
2 10.5201 6.29473 5.04003
2 6.29473 10.5201 11.6511
2 2.06934 6.29473 5.04003
2 6.29473 2.06934 11.6511
2 2.06934 6.29473 8.18207
2 6.29473 2.06934 1.57102
2 10.5201 6.29473 8.18207
2 6.29473 10.5201 1.57102
2 10.1594 8.65935 9.20274
2 3.93011 10.1594 2.59169
2 2.43004 3.93011 9.20274
2 8.65935 2.43004 2.59169
2 2.43004 8.65935 9.20274
2 8.65935 10.1594 2.59169
2 10.1594 3.93011 9.20274
2 3.93011 2.43004 2.59169
2 2.43004 3.93011 4.01936
2 8.65935 2.43004 10.6304
2 10.1594 8.65935 4.01936
2 3.93011 10.1594 10.6304
2 10.1594 3.93011 4.01936
2 3.93011 2.43004 10.6304
2 2.43004 8.65935 4.01936
2 8.65935 10.1594 10.6304
2 0 10.703 0
2 1.88643 0 6.61105
2 0 1.88643 0
2 10.703 0 6.61105
2 0 0 1.872
2 0 0 8.48305
2 0 0 11.3501
2 0 0 4.73905
2 11.2706 2.31295 2.18973
2 10.2765 11.2706 8.80078
2 1.31887 10.2765 2.18973
2 2.31295 1.31887 8.80078
2 1.31887 2.31295 2.18973
2 2.31295 11.2706 8.80078
2 11.2706 10.2765 2.18973
2 10.2765 1.31887 8.80078
2 1.31887 10.2765 11.0324
2 2.31295 1.31887 4.42131
2 11.2706 2.31295 11.0324
2 10.2765 11.2706 4.42131
2 11.2706 10.2765 11.0324
2 10.2765 1.31887 4.42131
2 1.31887 2.31295 11.0324
2 2.31295 11.2706 4.42131
1 11.0086 7.83654 8.10972
1 4.75292 11.0086 1.49867
1 1.5809 4.75292 8.10972
1 7.83654 1.5809 1.49867
1 1.5809 7.83654 8.10972
1 7.83654 11.0086 1.49867
1 11.0086 4.75292 8.10972
1 4.75292 1.5809 1.49867
1 1.5809 4.75292 5.11238
1 7.83654 1.5809 11.7234
1 11.0086 7.83654 5.11238
1 4.75292 11.0086 11.7234
1 11.0086 4.75292 5.11238
1 4.75292 1.5809 11.7234
1 1.5809 7.83654 5.11238
1 7.83654 11.0086 11.7234
1 10.1088 10.1088 3.30552
1 2.48067 10.1088 9.91657
1 2.48067 2.48067 3.30552
1 10.1088 2.48067 9.91657
1 2.48067 10.1088 3.30552
1 10.1088 10.1088 9.91657
1 10.1088 2.48067 3.30552
1 2.48067 2.48067 9.91657
1 0 1.60471 1.57853
1 10.9848 0 8.18958
1 0 10.9848 1.57853
1 1.60471 0 8.18958
1 0 10.9848 11.6436
1 1.60471 0 5.03252
1 0 1.60471 11.6436
1 10.9848 0 5.03252
96
 Atoms. Timestep: 2000
2 12.4398 7.88744 4.33074
2 4.74645 12.5942 12.0829
2 0.104127 4.90188 4.83402
2 7.47565 0.185504 11.5216
2 0.00369198 4.70829 8.94627
2 8.08575 -0.0733741 1.40367
2 12.3915 7.3208 7.41184
2 4.58716 -0.132655 0.701006
2 10.4674 8.6152 6.25878
2 3.86427 10.6728 12.7975
2 2.12927 4.57731 6.79816
2 8.23478 1.90987 0.0991186
2 0.848852 8.79563 6.75664
2 8.53774 10.9489 13.177
2 11.1628 4.69 7.28466
2 4.77277 3.30445 0.65446
2 10.438 5.62495 4.43024
2 6.32512 10.6339 11.4848
2 1.35574 6.96059 5.68444
2 6.59897 3.02475 11.5771
2 2.19874 6.30762 8.35464
2 5.87936 2.04847 2.1001
2 9.87852 5.82591 8.8265
2 6.09662 10.4891 0.703505
2 10.1184 8.6189 8.87476
2 4.02028 11.3423 2.17328
2 1.59207 2.9459 10.0649
2 8.97513 2.2338 2.2163
2 1.80148 8.77311 8.87887
2 9.06616 10.221 1.82169
2 10.9919 3.08555 9.2756
2 3.85049 4.22165 2.49479
2 2.19432 4.89899 3.7163
2 9.18133 2.39359 11.4609
2 10.1439 8.50592 3.58979
2 3.14056 10.9622 10.0949
2 11.1305 2.90886 4.774
2 4.06705 2.02017 11.5611
2 1.6443 9.76205 4.4039
2 8.4773 10.6717 10.5487
2 0.399583 9.3143 13.403
2 1.47865 0.848088 6.05254
2 0.234069 1.318 0.437583
2 10.2887 12.5484 7.70719
2 0.377282 12.1203 0.880901
2 0.278244 12.6331 8.66274
2 12.2344 11.3275 12.2161
2 -0.151369 11.8771 4.55851
2 11.6373 2.61634 2.3019
2 10.779 10.9331 8.91352
2 1.23945 10.2918 2.35192
2 2.77209 0.340257 9.37799
2 1.08297 3.63558 1.50823
2 1.95311 11.6769 7.69856
2 11.7557 10.0707 1.77723
2 10.6088 0.333632 10.1337
2 0.522404 10.3831 10.5101
2 0.967627 0.875908 3.28597
2 12.0074 1.3489 12.0895
2 10.2944 11.534 3.85864
2 10.6637 9.41467 11.177
2 10.2394 0.756096 4.00038
2 1.09608 0.877846 11.7227
2 2.68989 11.5271 4.25072
1 10.7061 7.56427 7.605
1 4.65543 11.1289 0.66103
1 1.80575 4.36497 8.77202
1 7.21882 1.25968 1.40311
1 1.18876 7.44019 8.16911
1 7.77333 11.0617 1.15045
1 11.3896 4.48641 8.92066
1 5.40733 3.61241 2.19942
1 1.72516 5.33047 5.54063
1 7.77786 2.03727 11.7507
1 11.01 7.28689 4.01717
1 4.33193 10.9423 11.2191
1 11.7131 4.16155 5.75783
1 5.02864 3.11769 12.3019
1 1.02857 8.35573 4.88513
1 7.71103 11.3269 11.7891
1 10.2867 9.97902 2.9412
1 1.86519 10.4919 9.0928
1 2.04099 4.80403 2.09559
1 10.8158 1.81565 10.7114
1 2.75175 10.4233 3.09481
1 9.94436 10.1057 9.91551
1 10.3193 2.28741 3.21826
1 2.67228 1.72551 10.7847
1 0.449543 2.2817 1.80657
1 11.5915 12.4934 8.88409
1 0.262876 10.3906 1.23675
1 1.74152 0.354226 7.70694
1 12.3788 9.62927 11.8966
1 1.30767 12.6828 4.62857
1 -0.116962 0.107816 12.7651
1 11.218 12.2986 4.66693
96
 Atoms. Timestep: 4000
2 0.208752 7.52912 4.30594
2 4.7055 0.17984 12.0448
2 -0.153761 4.8385 5.39439
2 8.07317 12.5344 11.3191
2 12.1072 4.6213 8.24696
2 8.44452 0.035204 2.14966
2 12.5543 7.81283 8.02073
2 4.70342 -0.0165147 2.40233
2 10.9344 8.14126 5.87009
2 4.05051 11.637 -0.192927
2 1.84954 4.29796 7.14252
2 8.3903 1.41122 13.3613
2 1.87405 7.58085 6.53082
2 8.551 10.9985 -0.0686257
2 10.1505 4.99323 6.86646
2 5.02745 1.41899 0.189797
2 10.6524 6.29448 4.8834
2 6.4551 11.0564 12.5537
2 1.27288 5.92413 4.65657
2 6.42425 1.99011 11.5314
2 1.62078 6.27461 8.53523
2 7.16531 1.61814 2.26277
2 10.4552 6.55491 8.77148
2 6.19144 11.0772 1.23745
2 10.4837 9.31413 8.38231
2 3.7325 10.5593 2.77394
2 1.68353 4.26903 10.1346
2 9.66712 2.63841 1.96427
2 2.33141 8.67287 9.23625
2 8.47489 10.4685 2.59649
2 10.1395 3.6714 9.41791
2 4.48099 2.47913 2.83145
2 2.54382 4.0065 4.08494
2 8.82113 2.24593 10.8782
2 10.5921 8.95488 3.6363
2 3.82777 10.4027 10.9018
2 10.8103 3.70985 4.20332
2 3.81225 2.08087 10.9613
2 2.94692 8.61617 3.7102
2 9.02155 9.84757 10.9767
2 12.5568 10.5109 13.1132
2 2.14173 1.1773 3.58299
2 12.848 2.09012 0.125202
2 10.5012 0.215551 6.69296
2 12.7197 7.73414 1.62873
2 12.5814 0.0865303 8.45948
2 12.1527 12.5397 11.7275
2 12.1722 0.0365449 4.69689
2 12.1749 2.80605 2.10972
2 9.96474 11.2524 8.71878
2 1.08026 9.86363 1.9058
2 2.13353 1.59207 9.21727
2 2.19385 2.43022 1.46138
2 2.07104 11.7566 8.81114
2 10.7941 9.66236 0.84222
2 9.98505 0.921317 9.79888
2 1.03778 10.3249 11.1615
2 0.588549 0.586412 2.24029
2 11.7666 2.5454 11.1432
2 10.1059 11.5024 4.47384
2 11.4276 9.68766 10.5
2 10.4285 1.51425 4.09901
2 1.19003 2.10761 11.4556
2 1.53714 11.6214 4.2128
1 10.909 7.83255 7.63755
1 4.4781 11.4619 1.69762
1 0.829565 4.97126 8.64106
1 8.62468 1.81889 1.26832
1 1.38614 7.81285 8.11433
1 7.95704 11.4928 1.56508
1 10.5055 4.89399 8.77034
1 5.60214 1.41069 1.77252
1 1.60142 4.1901 5.50135
1 7.81578 1.15364 11.828
1 11.4902 7.57285 4.29517
1 4.72344 11.3898 12.0209
1 11.2016 4.88627 5.82424
1 4.83215 1.94358 12.0911
1 2.08614 7.35654 4.78018
1 8.2845 11.1341 12.0446
1 9.37674 10.0203 3.80427
1 2.54334 10.3435 9.85286
1 2.96476 2.67402 2.98815
1 10.4041 2.512 10.2311
1 2.13134 10.4609 3.16644
1 10.0074 10.0597 9.79065
1 10.9515 2.52406 2.96862
1 2.29051 2.47182 10.4656
1 0.726345 2.12292 1.38651
1 10.6907 -0.0319949 8.64912
1 12.5071 9.35951 0.970039
1 1.24156 0.24517 8.73774
1 12.4475 10.6652 11.4805
1 0.796613 0.115247 3.77803
1 12.7258 1.408 12.1157
1 10.6236 0.0864912 4.78769
96
 Atoms. Timestep: 6000
2 12.0095 7.8995 4.69548
2 4.87732 -0.0105136 12.048
2 12.3121 4.98886 4.28543
2 7.86901 11.9875 11.0725
2 -0.0131041 4.32001 8.09997
2 7.06012 12.5579 1.71942
2 -0.0091963 8.31361 8.6518
2 4.17699 1.12992 2.14761
2 10.8881 8.23844 6.99125
2 4.68471 12.1762 0.633123
2 1.95157 4.87239 6.17065
2 8.97133 1.15285 0.802559
2 0.928353 8.4181 6.4339
2 8.06496 11.0401 0.675684
2 11.4394 4.36424 6.34434
2 4.72355 2.17694 -0.0324728
2 10.1095 6.086 5.11995
2 5.67818 10.8477 12.5111
2 1.49394 6.6687 4.52735
2 6.56648 1.91148 11.1488
2 1.68677 6.9034 8.65634
2 6.61485 2.17968 2.32413
2 10.5845 6.13215 7.98738
2 5.55214 11.214 2.82896
2 10.6137 8.15199 10.0548
2 3.65558 10.8401 3.28412
2 1.67379 3.98922 9.10838
2 9.2974 0.981686 3.10495
2 2.64856 9.62654 7.80791
2 7.47238 10.0268 3.62617
2 11.0858 3.16542 8.47515
2 3.61159 3.38392 2.01477
2 1.37823 4.59008 3.21582
2 9.0225 1.91302 10.2484
2 8.73209 8.41437 5.7675
2 4.71206 11.5147 6.48163
2 10.1478 3.27133 4.40366
2 4.28004 2.97764 11.0022
2 1.10307 8.63255 3.54935
2 9.13445 10.6861 12.0479
2 0.998292 10.3287 12.9882
2 2.09077 2.54691 4.46139
2 0.0401602 1.66574 -0.374505
2 10.3139 11.8741 7.27518
2 2.80487 11.5054 13.0685
2 12.4356 12.4451 8.21606
2 0.370923 7.89466 0.471975
2 0.295663 0.262816 5.39335
2 12.1572 2.0892 3.00198
2 10.2598 10.6984 9.55294
2 1.36895 10.2661 1.45496
2 -0.130072 10.202 6.50665
2 1.20735 2.67256 2.15413
2 1.22748 12.0059 7.25985
2 1.26712 0.23277 0.679211
2 10.8856 0.503835 10.4949
2 2.4093 11.2376 5.72004
2 1.54693 0.672495 2.89725
2 11.899 3.17773 10.7947
2 9.53078 10.5719 5.69396
2 11.7848 8.66067 12.179
2 10.333 0.365368 4.80936
2 1.8778 2.76242 11.3068
2 2.68663 12.1659 4.68507
1 11.4595 7.71459 8.35219
1 4.27027 12.2081 2.33753
1 1.43273 4.96882 7.85012
1 7.93568 1.01158 1.89555
1 1.76652 8.21579 7.80155
1 7.06288 10.8261 2.37599
1 11.4588 4.63753 8.01324
1 5.14404 2.73374 1.44416
1 0.87004 5.26773 4.61984
1 7.72221 0.835977 10.4989
1 10.4329 7.43544 5.61119
1 4.37996 11.6826 12.8019
1 10.6223 4.64249 4.56628
1 5.2179 1.66815 12.2832
1 0.645405 8.22153 4.95164
1 7.48926 10.6321 12.6201
1 8.24918 9.92001 5.02172
1 2.875 11.6407 7.34125
1 2.18421 3.24099 3.21903
1 10.4795 2.09368 10.0232
1 2.23368 9.48049 2.93576
1 10.303 9.41818 11.1867
1 10.7958 1.58175 3.6286
1 2.93844 3.41255 10.5649
1 0.307007 1.28836 1.57849
1 10.973 12.2445 9.11529
1 1.61534 11.8358 0.495169
1 -0.193239 12.0262 6.54747
1 0.0798664 9.08326 13.0336
1 1.99944 0.484329 4.31656
1 0.332389 2.71319 12.0347
1 10.7836 12.0551 5.34905
96
 Atoms. Timestep: 8000
2 11.7053 7.47232 4.91248
2 4.701 12.0735 11.2175
2 12.1554 4.34519 4.91242
2 6.59181 0.232519 11.2457
2 -0.103407 5.41267 8.87278
2 7.82813 0.198458 1.63391
2 12.5609 8.95143 8.46507
2 5.53073 0.250548 1.88464
2 10.131 8.1912 6.83381
2 5.2553 10.8642 0.338688
2 1.44019 4.86359 6.8136
2 8.00572 2.12965 12.6886
2 0.927793 7.95453 6.3637
2 8.09704 11.0255 13.13
2 10.4921 4.32384 7.19701
2 4.61415 2.63555 0.165602
2 9.83737 5.86105 5.93261
2 5.93022 10.4822 11.8572
2 1.44244 6.54275 4.58529
2 6.86756 3.11534 11.378
2 1.24221 7.1385 8.29906
2 6.38791 2.4387 1.82641
2 10.8356 6.61953 7.88548
2 6.91885 11.1041 2.17238
2 9.88519 8.98473 9.47256
2 3.9202 10.4717 2.2209
2 2.76557 4.74521 8.97788
2 8.91594 1.91575 2.55213
2 2.35579 9.30295 9.27691
2 9.19196 10.0622 1.78608
2 10.7165 3.51886 9.59253
2 4.04242 2.07859 2.96598
2 1.97368 3.74756 4.71535
2 9.25489 1.45233 10.5132
2 10.5233 7.8088 3.35804
2 2.89936 11.1116 11.5123
2 10.1417 3.23616 4.15932
2 4.51619 3.19853 10.8157
2 1.05198 9.00105 3.78023
2 7.99319 11.155 10.4919
2 0.350092 10.0148 -0.157377
2 2.54091 1.53092 4.54223
2 0.710496 1.89485 0.845172
2 10.3963 -0.302139 6.40174
2 3.05229 11.1452 0.274334
2 12.0654 11.7448 7.33307
2 11.0399 9.27118 0.933863
2 0.900944 11.8542 5.19689
2 11.8163 1.7046 3.13861
2 10.3012 11.4394 8.88666
2 1.49847 10.5939 2.27224
2 1.84517 10.3513 7.10918
2 1.25163 2.35559 2.7556
2 0.289004 10.915 10.1701
2 0.903201 -0.114344 1.45367
2 10.9557 1.19105 9.03473
2 3.13799 10.3362 4.72593
2 1.15541 0.371534 3.37518
2 12.1658 2.54071 11.2559
2 11.1399 10.7825 3.59789
2 10.845 10.0963 11.2471
2 10.239 0.167819 3.91066
2 1.68535 2.47108 11.289
2 3.40426 12.0556 5.05135
1 10.8061 8.31292 8.42648
1 5.42297 11.3896 1.803
1 1.52361 5.49885 8.40626
1 7.61223 1.89031 0.987108
1 1.44086 8.75234 7.92327
1 8.33476 11.2793 1.25359
1 11.1614 4.88966 8.66187
1 4.86376 1.8315 1.63323
1 0.861754 5.00665 5.01751
1 7.74786 1.631 11.1845
1 10.1473 7.25337 5.15164
1 4.2643 11.0523 12.4486
1 10.6236 4.27634 5.43854
1 5.46091 3.44507 12.3227
1 0.124362 8.61579 5.19191
1 7.24268 11.3532 11.9052
1 10.6113 9.51846 2.6346
1 1.84488 10.2525 10.5502
1 2.70251 2.7435 3.34735
1 10.8801 1.92269 10.4194
1 2.59558 9.526 3.31333
1 9.63537 10.4106 10.1195
1 10.1671 1.75693 3.53651
1 2.97751 3.52192 10.1425
1 0.506174 1.30534 2.11176
1 10.6038 12.4412 7.95898
1 1.32949 11.3572 0.88138
1 0.416301 10.8063 6.34271
1 11.4344 9.31822 12.5973
1 2.04639 0.0810471 4.89299
1 0.261663 2.43555 12.682
1 11.1758 11.7408 4.98823
96
 Atoms. Timestep: 10000
2 0.344232 7.68307 4.35009
2 3.99531 0.530149 11.9542
2 0.651188 4.32606 5.64526
2 7.52824 0.18292 11.1673
2 -0.163413 5.33579 9.23641
2 8.32671 0.0736256 1.32909
2 12.4133 9.05129 7.46856
2 5.40126 12.319 1.15687
2 10.565 8.06449 5.67954
2 4.29042 11.0336 12.8933
2 2.35936 5.36286 7.49576
2 8.23017 1.98614 -0.0532364
2 1.45295 8.07697 6.89243
2 8.52045 10.5716 12.2907
2 11.2455 5.03736 6.83752
2 4.70538 1.55983 0.104025
2 11.2815 5.41846 4.36747
2 6.0857 10.9683 11.2054
2 2.27485 6.62707 4.85707
2 6.5277 2.20256 11.2961
2 1.49602 7.2368 8.92495
2 6.3186 2.01752 1.39684
2 10.4744 6.89513 8.28308
2 6.81971 10.388 1.04766
2 10.4516 9.225 8.07519
2 4.45849 10.4925 2.56586
2 2.43049 4.43912 9.46401
2 8.46602 1.95917 2.94717
2 0.955899 9.63489 10.0264
2 9.20401 10.1681 1.49404
2 10.5656 3.95747 9.70352
2 3.52065 2.01679 3.07803
2 3.02912 3.81973 4.84378
2 9.21431 1.97407 10.6007
2 10.2144 7.83876 3.20061
2 3.05924 10.5625 11.3116
2 11.1955 2.63499 5.08609
2 4.02369 2.23866 10.1581
2 2.35745 9.36162 3.90899
2 8.69653 10.4336 9.88471
2 0.351122 9.16572 12.1904
2 1.37642 1.6272 4.95463
2 12.3159 2.21081 0.553567
2 10.542 0.061897 7.56555
2 1.55291 0.902167 -0.0229509
2 0.68092 12.4226 8.9929
2 10.7695 8.05743 0.564746
2 0.309739 0.283851 6.80248
2 10.8259 1.65162 2.53839
2 11.4544 10.8364 9.49529
2 1.56943 10.6318 1.24772
2 1.56618 10.276 8.00153
2 0.844641 2.80509 2.67731
2 1.00485 11.6182 12.4552
2 -0.0092061 0.169811 1.2872
2 11.4988 1.26368 9.24573
2 1.54059 11.7357 3.35569
2 12.4457 0.71267 3.51185
2 11.7554 2.04406 11.3629
2 8.18848 11.1 6.08813
2 10.8101 8.62414 10.8292
2 10.4992 0.585453 5.07804
2 1.89656 2.66689 11.6583
2 0.763139 12.1016 4.53144
1 11.11 8.24063 7.23401
1 5.31835 10.7778 1.10691
1 1.41432 5.67391 8.81828
1 7.8138 1.55262 1.63531
1 1.14007 8.80748 8.49694
1 8.15196 11.1143 0.451077
1 11.0553 5.02562 8.58292
1 4.85603 1.40404 1.71324
1 2.28837 5.10734 5.59974
1 8.02319 1.81548 11.5653
1 11.2023 7.25209 4.26392
1 4.63351 11.6416 11.3713
1 11.7981 4.268 5.29892
1 4.8998 1.83256 11.6461
1 1.79194 8.20427 4.94
1 7.68876 11.0724 11.015
1 10.0804 8.84469 1.82462
1 1.45069 10.2248 11.4483
1 2.17569 2.49068 3.89279
1 10.7082 2.45987 10.3083
1 2.93455 10.6303 2.7303
1 10.2551 9.74566 9.62122
1 9.97461 1.55004 4.03279
1 2.63839 3.01274 10.0823
1 12.4479 1.80557 2.04659
1 11.6028 12.3448 8.83202
1 1.00135 11.9271 0.622976
1 1.65886 12.1874 7.56369
1 11.6642 8.30025 12.4243
1 12.5428 0.648089 5.17678
1 0.442336 1.91661 12.3703
1 9.32167 12.366 6.32555
96
 Atoms. Timestep: 12000
2 12.899 7.19453 4.30155
2 5.10545 -0.149816 11.1946
2 0.432512 4.85481 5.34027
2 8.46261 0.151667 11.6647
2 0.514887 5.20949 8.73539
2 7.78592 0.130165 1.75646
2 11.9694 8.06081 8.80928
2 3.60605 12.3173 0.427552
2 10.7647 8.01787 6.15168
2 4.62662 10.3725 12.9539
2 2.61983 4.92721 7.34146
2 8.07289 2.18631 13.2562
2 0.763043 8.30902 6.81434
2 8.07077 10.7391 12.8025
2 11.3703 3.69434 6.98917
2 4.28692 1.86087 12.6283
2 10.897 5.67629 4.3351
2 6.6459 10.8585 10.5604
2 2.37453 6.55285 4.98767
2 6.63519 1.95585 11.1704
2 1.85277 7.65214 8.74247
2 5.34233 1.64015 1.54128
2 10.4486 5.76849 8.02556
2 6.34396 10.4802 1.28057
2 10.064 8.94849 8.94582
2 4.09651 10.645 2.67371
2 2.76379 4.72379 9.47401
2 8.25954 2.46126 2.39289
2 0.635675 10.0776 10.0463
2 9.46008 10.3496 1.06612
2 11.0631 3.6825 9.7526
2 3.57535 1.57299 2.52643
2 2.62081 3.74446 4.30307
2 9.68778 2.22061 10.8388
2 10.2602 8.08848 2.68129
2 3.55875 11.107 11.0602
2 10.1612 3.41541 4.14116
2 4.09119 2.01643 9.88733
2 2.43178 9.51304 4.55991
2 9.37002 10.1556 10.3824
2 1.09885 9.03407 12.0347
2 2.69217 1.48602 5.30597
2 12.5267 1.77311 0.643318
2 9.25003 0.62787 7.23757
2 2.02279 1.52786 0.659299
2 11.661 12.2122 6.83811
2 12.1457 9.66844 1.60866
2 1.83749 12.1063 7.3839
2 10.7838 1.19514 3.05248
2 10.8465 11.5792 8.8763
2 1.32231 10.0833 2.27111
2 0.230364 10.3204 7.61606
2 0.773974 1.87452 3.33292
2 1.3205 11.288 12.746
2 12.1652 12.0051 2.17162
2 10.956 1.49116 8.82183
2 1.77947 12.3864 3.05159
2 12.4792 12.6594 4.01224
2 12.5716 1.80404 11.2825
2 6.52833 -0.149362 6.19485
2 11.8004 9.02696 10.7902
2 8.53504 1.43929 4.82067
2 1.58234 2.85974 11.088
2 3.16806 2.32287 8.09321
1 10.6121 7.47463 7.93512
1 4.75572 11.0575 1.10389
1 2.19226 5.97201 8.47663
1 7.06896 1.70527 1.47382
1 0.825426 8.73943 8.36077
1 8.17498 11.3078 1.16344
1 11.5979 4.50784 8.40386
1 3.70513 1.21426 0.765077
1 2.261 5.04277 5.57365
1 8.05152 1.88312 11.6231
1 10.9299 7.28653 4.15839
1 4.9876 10.8862 10.9853
1 11.7617 4.21616 5.33332
1 5.01777 1.55152 11.1408
1 1.88843 8.04315 5.17188
1 8.29183 11.2065 11.1664
1 10.4904 9.29326 1.62894
1 1.9473 10.517 11.2507
1 2.47023 2.2604 4.04686
1 11.1913 2.13826 10.1921
1 2.5028 10.8835 3.49081
1 10.7564 10.2523 9.88524
1 9.58809 2.18771 3.22824
1 2.91858 2.88335 9.61013
1 12.3319 1.08221 2.36327
1 10.7479 0.278317 7.79563
1 0.529084 10.9475 1.08268
1 0.337882 11.6318 6.62779
1 12.6608 7.69938 11.5852
1 2.66771 1.00675 7.04213
1 0.907199 2.17071 12.6951
1 8.09257 0.523925 6.15462
96
 Atoms. Timestep: 14000
2 0.852595 7.93038 5.3224
2 4.4292 -0.0291793 12.798
2 0.719595 5.81427 5.99113
2 9.75706 0.514226 11.455
2 12.7222 4.90882 8.36108
2 9.04393 12.3905 0.73556
2 12.0377 7.14099 9.17702
2 4.01442 1.0692 1.9255
2 11.0464 8.57201 6.59882
2 3.90431 11.1724 0.742072
2 1.99568 3.91574 7.41316
2 8.48862 1.81495 13.073
2 1.80052 7.48139 7.75283
2 7.82823 10.0529 0.0428726
2 11.7086 4.51008 6.2092
2 5.66228 2.23492 0.229813
2 11.5817 6.63549 4.23249
2 4.91128 10.0337 11.855
2 3.19838 6.06045 5.93925
2 6.85433 0.99086 11.2448
2 1.76171 5.88654 9.35888
2 1.6385 2.34302 1.02859
2 10.3295 6.14463 7.72401
2 6.4225 11.195 1.80997
2 9.68451 8.31418 9.09748
2 3.60628 12.2084 3.26434
2 3.14271 3.24541 9.53662
2 10.1499 2.18903 2.44014
2 1.0926 8.97909 10.0402
2 9.50417 9.79081 1.20355
2 10.4645 3.08125 7.96396
2 2.99267 2.88986 1.35437
2 2.52112 4.73708 4.39244
2 9.41724 2.37537 10.0924
2 11.7052 9.50046 3.74512
2 12.4224 8.00625 11.8184
2 11.1405 3.80529 4.03597
2 4.64505 1.50639 10.7219
2 1.24882 11.0157 5.16303
2 7.73438 9.51901 10.3409
2 12.6156 11.2672 11.5076
2 3.2117 2.74309 5.86958
2 0.193248 1.28892 12.6135
2 9.16546 11.5069 6.21318
2 0.887632 3.05495 10.3089
2 11.5438 11.5375 6.40411
2 12.5466 9.63873 1.7366
2 2.17419 10.8389 11.9047
2 12.3314 2.2267 2.60104
2 10.1578 10.0724 8.29924
2 1.30437 11.2792 2.7424
2 1.82775 -0.113179 7.06772
2 0.545504 4.71874 3.8713
2 1.04687 9.71224 13.1839
2 0.111115 12.3585 0.975858
2 9.83363 0.486658 8.37975
2 2.69624 0.120734 4.94166
2 11.2128 0.99596 0.514776
2 11.6778 1.45559 9.79819
2 9.97698 11.1722 3.32633
2 9.92455 11.0407 10.8855
2 10.172 0.625547 4.70995
2 1.69631 1.11077 10.2063
2 3.68629 1.90671 7.55625
1 10.8055 7.83664 8.03233
1 4.59359 12.0223 1.90492
1 1.31417 4.2748 9.34182
1 9.6002 1.49496 1.04872
1 0.885117 7.42114 9.11098
1 8.26068 11.0345 1.33455
1 11.1245 4.55454 7.83751
1 4.77384 2.39933 1.59526
1 2.83913 4.48342 6.19328
1 8.35462 1.55661 11.208
1 11.8393 8.17332 4.78913
1 3.81016 11.1477 12.1888
1 12.1292 5.20921 4.77133
1 5.44572 1.19975 12.0918
1 1.64615 7.17348 6.21964
1 6.73178 9.92223 11.8465
1 10.836 9.58508 2.30317
1 0.756762 9.77537 11.4971
1 1.98805 4.22174 2.75954
1 10.3844 1.89175 8.99576
1 1.85812 11.8272 3.99021
1 9.48817 9.65183 9.91874
1 10.8817 1.83724 3.96195
1 3.18427 1.47958 9.51172
1 0.3261 1.45036 1.05019
1 10.1352 11.711 7.51812
1 0.803708 10.968 1.01287
1 0.642071 11.215 6.72149
1 11.0627 12.0039 11.4345
1 2.83775 1.04249 6.4242
1 0.395398 1.75334 11.1253
1 9.47084 11.801 4.53044
96
 Atoms. Timestep: 16000
2 11.2801 9.85749 6.11895
2 4.00307 0.222007 11.7217
2 2.0952 6.42422 4.97499
2 8.36558 1.52446 12.3952
2 0.621588 4.68552 8.73756
2 8.10082 1.28501 2.9455
2 12.1756 7.46892 8.28476
2 5.52878 1.08096 2.07341
2 10.3335 8.28206 6.85997
2 5.18981 10.6245 0.57557
2 2.08749 3.38285 7.81127
2 7.74715 3.24338 1.05642
2 2.95844 6.64498 6.87618
2 7.24066 10.8396 12.8192
2 12.1827 5.38853 6.02942
2 4.75153 2.26587 12.3915
2 11.2329 6.9271 4.56076
2 4.67857 9.5271 11.638
2 3.84086 5.66101 3.69209
2 6.46776 2.58367 11.2749
2 2.22919 6.30664 9.19006
2 12.1835 2.59972 2.80025
2 10.7145 5.83219 7.34127
2 6.39177 9.50237 2.54821
2 9.14579 8.37066 9.31606
2 4.50931 10.8747 3.09213
2 3.80774 2.07638 7.87748
2 9.48866 3.40233 3.37371
2 2.52251 8.31943 9.20528
2 8.95442 9.03744 1.49673
2 10.6282 4.11652 8.70748
2 3.63937 3.62988 1.9717
2 3.36474 3.86223 5.00692
2 8.99691 2.87014 10.8879
2 10.2134 8.71842 3.87549
2 3.51259 10.9913 9.08281
2 0.451868 4.07936 4.08625
2 5.16661 1.00012 9.7634
2 3.36728 8.49088 4.43586
2 7.01758 9.49029 10.5733
2 1.13717 10.9565 8.57828
2 2.73421 1.95837 6.12477
2 0.981903 1.61474 12.6769
2 8.89515 0.505232 5.82918
2 1.88421 3.21889 11.0507
2 10.6779 11.3284 8.10406
2 11.4535 9.60894 2.2682
2 2.44132 9.90255 11.0847
2 10.9317 3.33975 5.97855
2 8.77588 10.2539 7.82265
2 2.23662 9.8313 2.60209
2 1.17372 12.0513 6.75498
2 1.43737 5.44891 3.06138
2 2.0375 10.2294 0.53815
2 0.805199 0.258482 1.84438
2 9.48455 1.29641 8.54974
2 3.4674 11.0785 5.03313
2 10.0386 1.49499 1.50188
2 11.2642 1.97638 10.1685
2 8.84928 11.0296 3.56859
2 8.71405 11.0282 10.6938
2 10.5079 1.25066 4.33793
2 2.36877 0.891811 10.0715
2 3.91439 12.2826 7.18815
1 10.4726 7.49434 8.41626
1 5.76757 11.3779 2.22633
1 2.02588 4.18889 9.40855
1 8.54977 2.51844 2.26365
1 1.67162 7.34503 8.03593
1 7.53421 8.61661 1.5774
1 11.4613 4.54646 7.2075
1 4.71676 2.45569 1.33529
1 3.54611 3.41055 6.83025
1 7.85937 2.94662 12.0444
1 10.9602 8.50642 5.27339
1 3.40401 10.5826 12.3083
1 0.502575 5.84155 4.42088
1 5.57481 1.19816 11.32
1 3.5103 7.00366 5.08651
1 6.40924 9.39107 12.2281
1 9.80198 9.82575 2.66641
1 2.35499 10.151 9.59207
1 2.85176 4.68221 3.08565
1 9.93424 2.93753 9.60938
1 3.49991 9.94934 3.91144
1 8.16892 9.98339 9.4886
1 10.9767 3.0292 3.99958
1 3.70756 0.501027 8.78052
1 11.923 1.6634 1.27068
1 9.27794 12.0703 7.32914
1 0.956698 10.6502 1.70506
1 11.8606 10.8067 7.2043
1 8.11525 11.9332 12.1077
1 2.82146 12.3861 5.90191
1 0.893471 1.82314 10.8642
1 8.85296 0.497258 4.17099
96
 Atoms. Timestep: 18000
2 11.5537 9.65331 7.51649
2 4.65619 11.3635 11.8492
2 2.76064 7.00348 5.29337
2 8.08097 12.2174 10.9855
2 10.8652 5.09369 7.50251
2 9.11213 1.66955 3.18604
2 8.35898 6.30007 8.55947
2 5.32766 0.803171 3.21116
2 9.76539 8.71303 6.56393
2 5.2347 10.5871 1.45976
2 1.07604 3.56367 7.21307
2 8.39441 1.91337 12.7433
2 3.90847 6.29233 7.90436
2 8.04581 9.41467 10.342
2 0.703461 5.59937 6.46823
2 3.96216 1.58479 1.00289
2 11.4229 7.3414 5.52496
2 5.38415 9.33749 11.5233
2 4.31361 5.74355 4.91283
2 6.48041 1.28931 11.971
2 1.36997 5.78492 8.9583
2 11.8333 3.27049 2.35331
2 9.09048 6.41215 6.36632
2 7.51782 10.2032 1.89613
2 7.53322 8.69206 7.20869
2 5.26438 10.2252 3.94523
2 3.289 2.48738 7.75143
2 9.62573 3.86812 2.60793
2 2.28982 7.77886 9.8815
2 10.2437 9.8124 1.62154
2 8.73598 4.42681 7.66189
2 4.54717 3.65892 3.17994
2 3.39813 3.22621 4.78972
2 7.79285 2.90834 9.97407
2 11.5045 9.09646 4.25418
2 3.29195 9.00772 8.70532
2 12.0913 4.96853 4.08422
2 4.34951 1.15254 10.4177
2 4.60595 8.33488 5.4282
2 5.93628 8.43322 9.14415
2 1.09157 10.3185 9.76701
2 1.95854 1.0648 5.86689
2 0.81725 1.75683 12.0082
2 10.0859 0.61165 5.69455
2 12.0315 3.68837 9.52336
2 10.8838 0.34831 8.64827
2 0.958515 11.1665 2.79451
2 2.94835 9.99228 11.4255
2 10.3672 4.38285 5.0909
2 8.75688 11.0381 7.36724
2 3.37533 11.0357 4.08281
2 0.645993 11.5018 7.43374
2 2.35838 5.01842 4.62589
2 2.79719 10.9243 1.27523
2 1.93203 1.39693 2.10172
2 8.27917 2.46547 7.26494
2 3.36131 10.3101 6.46003
2 10.9899 1.83838 0.975095
2 11.4496 1.66532 9.15495
2 10.1604 11.0522 3.65009
2 10.5784 10.7576 10.3785
2 11.0112 2.07281 3.97727
2 1.92334 1.36548 9.88619
2 2.94038 12.045 8.29009
1 9.11252 7.4675 7.47025
1 6.00484 11.1114 2.62003
1 12.1703 4.87049 8.0707
1 9.10746 2.32296 1.62279
1 2.96772 6.29002 9.26951
1 8.80144 10.0301 0.812016
1 9.58122 4.89231 6.28601
1 4.21041 1.93526 2.63914
1 2.54232 2.71479 6.34587
1 7.69904 1.85955 11.1077
1 11.2122 8.88725 5.78999
1 4.06446 10.0944 12.4488
1 1.14467 6.29983 4.98937
1 4.91134 0.965208 11.9575
1 4.19762 6.70367 6.34702
1 6.64376 8.95594 10.4921
1 11.4351 10.2321 3.07601
1 2.47272 9.56988 9.87361
1 3.68712 4.59381 4.14319
1 7.78702 3.24599 8.42247
1 4.52769 9.95521 5.30628
1 5.68777 8.88684 7.44278
1 10.9101 3.91991 3.59809
1 3.37461 1.6345 9.05531
1 0.884316 2.19257 1.03023
1 8.87519 0.870516 6.8907
1 2.44811 11.6582 2.65289
1 11.4842 10.6696 8.93039
1 8.94078 10.6754 11.0465
1 2.28441 11.5161 6.84459
1 0.656286 2.16938 10.5289
1 10.1478 0.807673 4.10146
96
 Atoms. Timestep: 20000
2 11.1402 9.50819 7.28833
2 5.30075 11.0168 11.2333
2 3.02132 6.97691 6.49561
2 9.80517 0.916158 11.296
2 10.8906 5.85447 8.4844
2 9.30895 2.47126 2.26233
2 7.78445 8.95775 8.51118
2 3.91254 11.7647 2.85845
2 9.11326 7.94665 6.29009
2 4.04659 9.73022 1.00224
2 0.808905 3.63993 7.81337
2 9.07357 3.50842 12.5047
2 5.21947 5.70275 7.25044
2 8.71442 9.82425 10.8006
2 1.06837 5.43802 6.94446
2 5.11473 1.12454 1.12672
2 11.8409 7.65388 5.25733
2 6.72179 8.89791 11.4129
2 4.51841 5.53241 5.18943
2 7.26576 1.58809 12.1894
2 2.29031 5.27614 8.54318
2 3.14987 1.98568 1.35925
2 8.31801 6.21566 7.32199
2 5.99353 9.95644 1.36663
2 5.93757 8.11462 6.80601
2 4.09593 9.25453 3.12544
2 3.42374 3.27646 8.15565
2 10.4811 4.59517 3.25476
2 3.9569 6.70248 8.63563
2 8.33964 9.60441 1.78126
2 8.85773 4.16394 7.6684
2 4.1451 3.18722 3.2724
2 3.15491 3.51789 5.33992
2 8.96051 3.08948 10.192
2 10.2177 9.37035 4.09316
2 4.1815 9.36401 8.38527
2 12.2049 3.10592 5.46099
2 5.29427 1.86487 10.5953
2 3.86698 7.71485 4.7734
2 6.09966 10.1641 9.21935
2 1.65373 8.89948 9.20161
2 2.75544 1.65854 6.42708
2 1.3013 3.01438 11.8563
2 7.4965 1.07562 4.97079
2 0.956781 4.23576 10.1014
2 1.14728 11.7789 9.07703
2 11.3556 10.546 2.64988
2 3.63945 8.8063 10.5125
2 10.2859 4.80572 5.80241
2 5.94044 11.2993 7.19812
2 1.70103 9.99479 3.46861
2 1.48639 10.8057 7.04431
2 2.43771 5.24353 4.54165
2 2.6483 12.0138 3.54035
2 0.418464 0.868073 2.40902
2 8.13561 1.31934 7.92881
2 3.70421 10.5644 5.44548
2 11.6242 3.42135 1.47753
2 0.934667 1.47299 9.72675
2 8.74691 11.7808 3.12938
2 10.9157 10.1379 9.49523
2 9.44711 2.67751 4.65704
2 3.01081 2.42458 10.3004
2 3.38528 0.767719 8.30395
1 7.8412 7.79539 7.23242
1 4.7211 10.4091 2.29518
1 0.648405 5.02599 8.60177
1 10.1571 4.00663 1.76752
1 4.06889 5.06595 8.45828
1 6.92309 8.6761 0.746344
1 9.71849 5.43751 7.30281
1 4.54371 1.8028 2.57156
1 1.97928 3.08428 6.71925
1 8.79599 2.222 11.5566
1 10.4463 8.69178 5.69839
1 4.11869 9.87874 11.4885
1 1.70929 6.3087 5.52438
1 5.83501 0.925503 11.7779
1 4.61935 6.93531 6.10179
1 7.25265 9.61864 10.236
1 9.54295 10.3814 2.73196
1 3.20225 8.1467 9.1283
1 3.87098 4.54406 4.2693
1 8.69187 2.72148 8.57558
1 3.35081 9.23985 4.39034
1 5.65261 9.74246 7.77654
1 10.7478 3.56719 4.73701
1 3.96959 2.10719 9.13168
1 1.0688 2.18686 1.58153
1 7.36946 0.554943 6.71518
1 0.755791 11.3229 3.74498
1 0.808328 10.1464 8.38019
1 10.1527 10.9986 10.7222
1 3.00496 11.5847 6.58506
1 1.57342 2.66098 10.4576
1 8.35209 1.68629 3.56745
96
 Atoms. Timestep: 22000
2 0.279662 9.36381 7.15924
2 3.87937 12.336 11.9657
2 3.37511 7.87614 5.44568
2 8.77531 11.1917 11.0911
2 10.7027 4.88585 7.55265
2 7.93451 1.55689 2.17121
2 8.28326 6.8918 10.2492
2 4.27582 1.23685 2.28211
2 9.80263 7.95358 7.51208
2 4.53255 10.4226 1.61486
2 12.1314 3.00815 6.67109
2 8.11182 2.16728 11.9721
2 4.47124 6.99297 7.16013
2 9.27405 9.43403 10.1381
2 1.32972 5.68265 6.18903
2 4.91783 2.83321 0.550477
2 11.842 7.75304 5.62409
2 7.18538 9.693 12.343
2 4.80688 5.81488 4.8277
2 6.37005 1.1812 10.7746
2 1.8571 5.3732 8.4072
2 2.34226 2.62652 1.2913
2 8.56309 4.99861 7.89996
2 6.90059 11.3708 1.63222
2 6.38095 7.72327 6.85352
2 5.22095 10.8933 3.6528
2 4.27242 4.47073 8.45592
2 9.10925 3.67813 2.39599
2 3.29403 7.37558 9.64994
2 8.78217 9.6304 2.48392
2 9.6635 2.41805 7.76362
2 4.58554 4.30111 3.15458
2 2.12434 3.59424 5.43898
2 8.28769 1.35582 9.63981
2 10.1904 9.74342 5.08576
2 4.66398 9.2702 8.8446
2 11.594 2.73569 4.21467
2 4.88614 2.77594 10.3843
2 5.2066 9.1002 5.34428
2 6.92742 8.41894 9.32458
2 2.52509 9.63547 9.71518
2 2.73201 1.59601 5.59119
2 11.8735 2.514 11.9553
2 6.84353 0.923909 5.02387
2 0.736269 3.50002 8.82219
2 1.68276 10.3468 12.1316
2 11.5341 10.6025 3.097
2 4.03941 9.44254 11.5678
2 9.59689 4.1284 5.34354
2 6.72891 10.6562 7.77357
2 2.84088 10.3538 4.27836
2 2.01723 11.4023 7.44353
2 2.45142 6.0348 4.30253
2 0.936226 0.649121 4.7298
2 1.10025 0.636194 1.76359
2 8.04253 0.976463 7.0488
2 5.09011 11.5101 6.04242
2 10.5906 1.88813 1.26741
2 11.7908 1.08218 9.49717
2 9.36485 11.9893 3.86056
2 11.7453 11.0899 9.45806
2 9.1303 2.25103 4.2889
2 2.39059 2.40774 9.90037
2 3.01684 1.49907 8.00752
1 9.32963 6.54631 8.74172
1 5.45383 11.604 2.10971
1 0.626463 4.47705 7.45577
1 8.86917 2.53761 1.19694
1 3.40295 6.31617 8.36323
1 8.06245 10.3374 1.28569
1 9.36783 4.02088 6.85634
1 3.93201 2.8172 1.95357
1 1.02507 2.08737 5.42905
1 7.92817 0.751413 10.9827
1 10.6395 8.66809 6.33865
1 3.37721 10.5638 12.476
1 1.70797 7.19297 5.4619
1 5.14023 1.70444 11.6956
1 5.01698 7.46437 5.63305
1 7.89855 8.55291 10.765
1 9.91222 10.2774 3.6879
1 3.95594 8.7941 10.0266
1 3.47784 4.78488 4.39742
1 9.28261 0.942391 8.14073
1 4.34144 10.4943 4.8738
1 6.47085 9.05046 8.09653
1 10.1581 3.35486 3.76284
1 3.77793 2.98929 8.82412
1 0.694933 2.13633 1.39841
1 6.44858 12.1327 6.54293
1 1.53329 11.3149 3.12954
1 1.40631 10.1851 8.59433
1 9.86726 10.691 9.74456
1 3.45835 0.629667 6.64434
1 0.853984 2.45901 10.1711