96
 Atoms. Timestep: 0
2 0 7.95642 4.74695
2 4.63304 0 11.358
2 0 4.63304 4.74695
2 7.95642 0 11.358
2 0 4.63304 8.47514
2 7.95642 0 1.8641
2 0 7.95642 8.47514
2 4.63304 0 1.8641
2 10.7421 8.43088 6.61105
2 4.15858 10.7421 0
2 1.84736 4.15858 6.61105
2 8.43088 1.84736 0
2 1.84736 8.43088 6.61105
2 8.43088 10.7421 0
2 10.7421 4.15858 6.61105
2 4.15858 1.84736 0
2 10.5201 6.29473 5.04003
2 6.29473 10.5201 11.6511
2 2.06934 6.29473 5.04003
2 6.29473 2.06934 11.6511
2 2.06934 6.29473 8.18207
2 6.29473 2.06934 1.57102
2 10.5201 6.29473 8.18207
2 6.29473 10.5201 1.57102
2 10.1594 8.65935 9.20274
2 3.93011 10.1594 2.59169
2 2.43004 3.93011 9.20274
2 8.65935 2.43004 2.59169
2 2.43004 8.65935 9.20274
2 8.65935 10.1594 2.59169
2 10.1594 3.93011 9.20274
2 3.93011 2.43004 2.59169
2 2.43004 3.93011 4.01936
2 8.65935 2.43004 10.6304
2 10.1594 8.65935 4.01936
2 3.93011 10.1594 10.6304
2 10.1594 3.93011 4.01936
2 3.93011 2.43004 10.6304
2 2.43004 8.65935 4.01936
2 8.65935 10.1594 10.6304
2 0 10.703 0
2 1.88643 0 6.61105
2 0 1.88643 0
2 10.703 0 6.61105
2 0 0 1.872
2 0 0 8.48305
2 0 0 11.3501
2 0 0 4.73905
2 11.2706 2.31295 2.18973
2 10.2765 11.2706 8.80078
2 1.31887 10.2765 2.18973
2 2.31295 1.31887 8.80078
2 1.31887 2.31295 2.18973
2 2.31295 11.2706 8.80078
2 11.2706 10.2765 2.18973
2 10.2765 1.31887 8.80078
2 1.31887 10.2765 11.0324
2 2.31295 1.31887 4.42131
2 11.2706 2.31295 11.0324
2 10.2765 11.2706 4.42131
2 11.2706 10.2765 11.0324
2 10.2765 1.31887 4.42131
2 1.31887 2.31295 11.0324
2 2.31295 11.2706 4.42131
1 11.0086 7.83654 8.10972
1 4.75292 11.0086 1.49867
1 1.5809 4.75292 8.10972
1 7.83654 1.5809 1.49867
1 1.5809 7.83654 8.10972
1 7.83654 11.0086 1.49867
1 11.0086 4.75292 8.10972
1 4.75292 1.5809 1.49867
1 1.5809 4.75292 5.11238
1 7.83654 1.5809 11.7234
1 11.0086 7.83654 5.11238
1 4.75292 11.0086 11.7234
1 11.0086 4.75292 5.11238
1 4.75292 1.5809 11.7234
1 1.5809 7.83654 5.11238
1 7.83654 11.0086 11.7234
1 10.1088 10.1088 3.30552
1 2.48067 10.1088 9.91657
1 2.48067 2.48067 3.30552
1 10.1088 2.48067 9.91657
1 2.48067 10.1088 3.30552
1 10.1088 10.1088 9.91657
1 10.1088 2.48067 3.30552
1 2.48067 2.48067 9.91657
1 0 1.60471 1.57853
1 10.9848 0 8.18958
1 0 10.9848 1.57853
1 1.60471 0 8.18958
1 0 10.9848 11.6436
1 1.60471 0 5.03252
1 0 1.60471 11.6436
1 10.9848 0 5.03252
96
 Atoms. Timestep: 2000
2 12.5484 9.25008 5.76954
2 3.9393 12.3113 11.5504
2 12.6895 4.78352 4.80496
2 8.35126 11.2489 11.0948
2 12.6463 3.6684 8.21999
2 7.22087 12.3944 0.92106
2 1.48761 8.70031 6.66439
2 4.59641 12.3318 1.54334
2 10.788 7.84767 7.28757
2 5.15943 11.1683 13.4986
2 0.356027 3.98861 6.46178
2 8.42633 0.549609 12.8604
2 3.60396 0.533492 7.89811
2 8.07248 10.2792 0.0782693
2 11.119 5.01614 6.52871
2 4.60324 1.08776 13.3008
2 10.605 6.53044 5.02996
2 6.23562 10.1871 11.7295
2 1.57657 6.39352 4.70957
2 6.33279 0.11495 11.6291
2 1.23396 5.59746 8.00836
2 6.27419 1.42201 1.03583
2 10.3602 5.5809 9.4119
2 6.50208 9.86871 1.52202
2 10.1139 8.95715 9.78905
2 3.93074 9.62187 1.97129
2 2.0054 4.18366 9.68031
2 9.12166 1.67945 1.55066
2 0.967053 9.41955 9.70531
2 9.27456 11.3746 2.58961
2 10.3648 3.19099 8.50195
2 3.27146 1.46415 2.07196
2 1.50192 3.31666 4.17618
2 8.54556 1.33037 10.4288
2 10.6078 9.53694 4.99156
2 3.47781 10.1536 11.2658
2 10.2893 3.89383 3.65953
2 3.81166 2.11456 10.6991
2 2.29105 8.82823 3.82691
2 9.01894 11.1516 9.87784
2 12.0017 11.334 13.4949
2 1.88218 12.2672 6.61807
2 12.7894 2.56737 -0.190703
2 11.487 0.38105 6.4111
2 -0.243459 12.7371 1.43152
2 0.0849641 -0.108443 8.81926
2 12.0468 0.607046 12.175
2 0.300177 0.520645 5.2156
2 11.2718 1.6664 1.91062
2 11.3015 11.5806 8.87604
2 0.967406 10.5572 1.76819
2 2.33601 1.25826 9.43853
2 0.690041 2.14406 1.96322
2 1.74718 11.7009 9.09717
2 11.1423 10.7677 2.4277
2 10.3966 0.955783 8.75337
2 0.860256 11.7008 11.4787
2 2.353 1.07468 4.36007
2 11.3479 2.22359 10.4547
2 10.9213 12.0197 4.86449
2 11.7811 11.3789 11.046
2 11.4021 1.77999 4.22613
2 0.855545 2.29485 11.3366
2 1.96591 11.8071 3.85598
1 10.1992 7.51969 8.73509
1 5.21384 10.5249 1.18334
1 1.18659 3.8048 8.05371
1 7.95548 0.916174 0.591128
1 1.38218 8.34176 8.42807
1 8.03333 11.0531 1.43215
1 11.1825 4.47589 8.42939
1 4.57947 0.741345 1.27863
1 1.08934 4.71035 5.12124
1 8.07675 0.0837384 11.1513
1 11.1936 7.77119 5.61106
1 4.85115 10.9261 11.7834
1 11.0462 4.90622 4.91543
1 4.61326 0.741716 11.5983
1 2.41627 7.82623 5.12646
1 8.01139 10.1522 12.2614
1 10.2556 10.719 3.74119
1 1.89392 10.7706 10.3942
1 1.8326 2.03511 2.91313
1 9.81331 2.22508 9.69996
1 2.27865 10.4676 2.7497
1 10.591 10.5936 10.0297
1 10.317 2.42386 2.96192
1 2.34922 2.79998 10.4079
1 12.6103 1.19251 1.3105
1 11.6455 -0.125041 8.28614
1 12.5997 11.0253 1.38537
1 1.98144 0.19343 8.2656
1 12.6335 12.1436 11.9982
1 1.92205 12.8177 5.05404
1 12.6303 2.11607 12.0532
1 12.0192 0.396674 5.0485
96
 Atoms. Timestep: 4000
2 12.1245 8.39671 6.2144
2 4.01151 12.1352 11.3877
2 12.5018 3.58274 6.33819
2 8.26688 0.116167 12.0805
2 0.0940573 5.11225 7.64973
2 8.62948 0.374555 1.09666
2 1.89038 7.96219 7.1234
2 4.35407 12.3552 1.42572
2 10.049 7.88663 6.37275
2 4.03211 10.497 13.4385
2 2.0104 3.62996 5.93079
2 7.92886 2.00968 -0.0326989
2 0.857104 2.07341 8.14214
2 8.52662 11.2787 -0.330799
2 10.8546 4.66422 6.98537
2 4.82383 0.314298 13.2037
2 11.12 6.03795 4.86144
2 5.92859 10.5742 11.5408
2 3.54017 6.24527 5.37809
2 6.54539 1.0572 10.994
2 12.3052 6.96698 8.85107
2 6.6007 1.24613 1.80548
2 10.0421 6.35624 8.91546
2 6.52325 10.8942 2.04966
2 9.50768 9.23899 8.62542
2 3.84384 10.4561 2.76478
2 1.98699 3.7066 8.84195
2 9.24085 2.4062 2.73068
2 1.24254 9.01839 8.90105
2 9.19235 10.9163 1.94305
2 11.0919 3.76848 9.51737
2 3.91307 1.64399 2.1569
2 3.15107 3.74641 4.05435
2 9.02387 2.27114 10.6318
2 10.4225 8.41595 3.81233
2 2.80096 9.56954 10.7165
2 11.1176 3.47789 4.39284
2 3.8092 2.30533 10.7265
2 2.2756 8.815 4.34503
2 8.2103 10.6121 10.6662
2 0.390825 10.9901 12.9548
2 2.19203 0.0088627 6.28755
2 0.0644476 1.58702 -0.0489949
2 10.4428 12.4986 6.65229
2 0.126645 12.5456 1.58266
2 -0.0873038 -0.275869 7.87764
2 12.2436 12.6964 11.5347
2 12.377 0.033657 5.09852
2 12.6232 2.25728 2.50256
2 10.6586 11.6085 9.69227
2 1.04944 10.5919 1.79531
2 3.05092 1.73911 8.97775
2 1.65772 1.45761 2.32702
2 1.57444 12.2846 9.24211
2 11.5921 9.94985 1.36297
2 10.8343 1.1628 9.21237
2 0.423497 10.5046 10.771
2 1.58402 1.38494 4.47572
2 11.6168 1.98328 11.5347
2 10.0579 10.9 4.40578
2 10.7428 10.303 11.3524
2 10.5089 1.08898 4.3897
2 1.33161 2.26964 11.2617
2 1.11588 11.3272 4.20096
1 9.6521 7.6101 8.07192
1 4.63809 10.7201 1.37941
1 0.826194 3.70042 7.34382
1 8.22588 1.67591 1.60527
1 0.278121 7.85921 7.68343
1 7.93793 11.6676 1.16117
1 11.3658 5.22377 8.70672
1 5.19861 0.837111 1.43696
1 2.79096 4.71872 5.01241
1 8.18005 1.61119 11.8297
1 11.0087 7.58751 5.04065
1 4.37369 10.4285 11.4505
1 11.4368 4.63157 5.54354
1 4.85334 0.973916 11.5533
1 2.5515 7.96599 5.62641
1 7.62695 11.529 11.8809
1 10.1734 9.99576 2.63174
1 1.74059 10.8234 9.75911
1 2.56431 2.18383 3.51789
1 10.5793 2.50511 10.1065
1 2.16548 10.2563 3.22504
1 9.75879 10.0724 10.0996
1 10.9571 2.48951 3.26908
1 2.38618 2.79663 10.1173
1 0.262129 1.17609 1.49616
1 11.0177 12.5809 8.03103
1 -0.00864739 11.0502 0.877365
1 1.92636 0.501378 7.99554
1 12.0954 11.0738 11.6981
1 1.36353 -0.116771 4.918
1 0.171498 1.17971 11.973
1 10.6201 12.3824 5.03942
96
 Atoms. Timestep: 6000
2 -0.105774 8.14622 6.35568
2 3.2271 12.588 11.6439
2 0.228829 3.91594 6.54967
2 6.98843 12.5863 11.6133
2 11.7729 3.91357 8.45082
2 7.65319 0.165695 1.64586
2 1.27486 6.34122 6.34004
2 4.56071 2.12044 12.624
2 10.2938 8.24579 6.62723
2 5.13616 11.0368 0.385491
2 4.08447 3.19762 7.19945
2 7.51394 1.18609 13.0239
2 0.955763 1.37311 8.53956
2 7.3293 10.3301 0.270006
2 10.9864 4.3895 6.64313
2 3.96858 4.06638 13.0886
2 11.2287 5.8308 4.7335
2 5.28996 10.4884 11.2177
2 4.08428 5.58494 4.90741
2 5.61325 1.35192 10.6911
2 12.3955 6.31539 7.97421
2 6.04968 1.56623 1.24245
2 10.1981 6.68801 8.34336
2 6.63733 10.8888 2.25844
2 9.48713 8.73689 9.27461
2 4.21489 10.5666 3.26026
2 1.60306 3.91282 8.62166
2 8.97412 2.59999 2.16296
2 0.989097 9.07651 8.94356
2 9.58026 10.2227 2.70826
2 9.82797 3.84753 8.5775
2 3.74002 2.07319 2.43413
2 4.19261 3.08706 4.86791
2 8.69811 2.63735 11.0904
2 11.6653 9.35981 3.90056
2 2.76044 9.98072 11.2981
2 11.7249 3.38349 3.95722
2 3.33585 2.67844 10.0949
2 2.34533 10.3493 0.103529
2 8.0181 9.78757 11.1092
2 0.172753 10.2848 0.166895
2 2.15693 0.0982739 6.99205
2 0.105219 2.26595 13.2624
2 11.1336 0.0490128 6.7708
2 1.06848 0.534757 1.10583
2 12.4221 12.3745 8.79881
2 12.0794 -0.0281878 11.5956
2 0.308798 12.4338 4.94969
2 11.5981 2.34497 1.71743
2 9.78906 11.4018 8.98859
2 2.08183 11.1393 2.69323
2 2.60765 0.503253 9.59545
2 1.36537 2.34614 2.88466
2 1.75355 11.0199 9.07393
2 12.2985 11.0723 2.07201
2 9.46698 1.34362 9.32938
2 0.687327 9.8256 11.6307
2 2.39556 1.02017 4.55815
2 10.9828 2.2185 10.3134
2 10.8297 11.3158 4.56839
2 11.1206 10.1549 10.8678
2 10.5807 1.08471 3.85562
2 0.982317 1.14135 10.6959
2 2.48848 8.72501 5.04068
1 9.14848 8.00224 7.71266
1 5.20737 10.5089 2.06436
1 0.283579 3.07625 8.04176
1 7.72532 1.65936 1.37128
1 0.896918 7.55697 7.50068
1 7.97446 10.9792 1.5446
1 11.0773 5.39382 8.03721
1 4.31832 2.48913 1.00381
1 4.48106 4.21011 6.03023
1 7.19362 1.45199 11.2684
1 11.2225 7.726 5.16623
1 3.89273 10.8808 12.0465
1 11.9864 4.33184 5.2672
1 3.75223 1.44209 10.9811
1 2.52879 6.77768 4.89334
1 6.85222 10.8567 11.9323
1 11.2118 10.822 3.12553
1 1.65519 9.68955 10.1858
1 2.89508 2.35469 3.64493
1 9.64702 2.95314 9.90537
1 2.75902 10.4961 4.2816
1 9.64205 10.0468 10.2073
1 10.409 2.31243 2.95544
1 3.1962 3.41594 8.60153
1 0.502666 2.0689 1.52386
1 10.7584 0.335778 8.36338
1 1.35052 11.1473 1.19615
1 1.64921 12.4409 8.34133
1 12.097 10.9183 12.2831
1 2.01374 12.3676 5.36544
1 12.4015 1.50142 11.6631
1 11.366 0.179974 5.12928
96
 Atoms. Timestep: 8000
2 12.2826 6.55615 8.75599
2 4.1461 1.16093 11.3119
2 9.1983 3.12222 7.34577
2 7.24465 12.5432 10.3989
2 1.41194 4.77638 8.20434
2 7.94962 11.2987 2.08573
2 6.2505 10.1792 9.70514
2 6.17518 2.10851 12.3611
2 7.52707 6.98761 5.98392
2 3.66146 10.0216 3.8549
2 4.03261 2.92403 4.16964
2 8.65872 0.889485 13.1888
2 11.4078 3.48808 6.97018
2 6.93502 10.9946 13.243
2 10.0783 5.79974 7.28027
2 5.63353 2.4434 2.03153
2 9.79087 4.83913 5.27634
2 5.4345 11.8102 11.7921
2 3.38559 11.6637 9.85345
2 5.8383 2.72197 10.4023
2 3.06556 6.19292 10.3595
2 7.95826 4.49391 1.14328
2 6.51091 8.05028 8.45392
2 6.05393 9.84521 2.24726
2 8.96612 6.84888 9.20721
2 5.65162 10.9898 5.10037
2 2.06907 3.36905 5.92777
2 10.2912 0.468948 2.38062
2 1.41536 8.13544 10.2768
2 8.79559 9.16009 2.16154
2 10.1247 4.33193 9.09989
2 3.36563 3.61118 12.0696
2 3.5797 4.07726 1.67181
2 8.06656 2.74139 9.35307
2 9.37914 7.98322 5.17635
2 2.4799 10.3241 11.2377
2 10.5884 1.83274 5.15949
2 2.86993 1.57368 6.86643
2 0.620549 11.8235 0.316573
2 8.20559 10.6803 10.6486
2 1.52684 11.5234 3.3693
2 4.85368 1.72836 5.99029
2 11.1183 2.49775 13.2245
2 8.96386 12.018 6.70704
2 0.755423 1.34783 1.39431
2 12.3164 12.1098 7.25157
2 10.6308 12.1101 12.0315
2 1.14608 9.54674 4.78688
2 11.4816 2.4433 3.09462
2 10.4233 11.1008 8.27471
2 6.03996 1.40173 7.77227
2 1.21782 2.08835 7.82414
2 0.926742 3.58222 0.943155
2 1.62789 10.8853 8.24551
2 11.5306 9.98336 0.513823
2 10.8692 1.2036 8.59946
2 0.476659 11.2283 10.956
2 3.58437 11.7147 5.44914
2 9.41153 2.74349 10.791
2 11.2646 9.14251 3.08068
2 11.0508 10.3082 11.1346
2 11.3999 11.4239 4.94237
2 9.41652 0.210954 10.4899
2 6.11992 10.9535 7.35567
1 7.42097 7.03626 7.82203
1 5.36883 10.5099 3.48048
1 0.613943 3.61368 7.26813
1 8.77489 0.417054 1.66078
1 1.65525 6.34293 9.44781
1 7.46237 10.1006 1.4583
1 10.5859 5.9115 9.14001
1 6.94325 3.16007 0.683609
1 4.17103 2.74973 2.51307
1 6.53253 1.39019 9.59184
1 9.35993 6.48228 5.68064
1 3.78503 11.5522 11.6018
1 10.1679 3.3715 5.87888
1 4.5104 2.6112 11.5032
1 5.87272 9.60752 8.21586
1 6.75117 10.8274 11.6121
1 10.6251 8.98826 1.38764
1 1.34692 9.91374 10.1395
1 2.47779 3.91384 0.440696
1 9.8029 2.6813 9.08707
1 5.0717 12.3954 6.43979
1 9.77935 10.93 10.072
1 10.8759 0.642113 4.07797
1 3.61411 2.59803 5.74593
1 11.9577 2.52812 1.45431
1 10.8462 12.3979 7.63195
1 1.31735 11.9637 1.61826
1 1.45126 0.360981 7.68272
1 12.0447 11.0155 12.4036
1 2.58283 10.7365 4.5859
1 9.74209 1.39194 11.9143
1 11.5835 9.40343 4.61431
96
 Atoms. Timestep: 10000
2 11.0873 6.49061 9.33769
2 3.37311 2.09381 10.1807
2 10.6701 5.08863 6.94785
2 7.14531 11.9436 10.9636
2 2.36753 5.99606 8.47971
2 8.02231 11.4656 2.63249
2 6.36702 9.50872 12.1516
2 3.77428 3.01591 0.440264
2 8.9907 8.68854 6.26766
2 4.41322 8.5462 4.7486
2 4.06423 4.49935 4.50049
2 5.82158 1.3756 2.60829
2 0.987212 5.21087 6.70091
2 8.61982 9.3062 0.392135
2 10.8757 4.83752 3.92475
2 5.07879 3.85383 2.54839
2 1.42339 4.37006 4.96648
2 4.82769 0.577904 10.6248
2 3.69224 0.998987 7.77401
2 5.31893 2.72752 10.6075
2 1.01291 7.41017 7.70657
2 6.09444 1.95376 12.5995
2 4.49204 7.10848 11.7259
2 7.23676 7.27121 5.36627
2 8.82105 5.9878 7.90264
2 5.1953 6.99357 3.4074
2 2.91463 3.79031 6.57022
2 8.97951 1.58855 3.47369
2 2.45416 8.20904 9.42502
2 9.33389 7.5936 12.482
2 9.44334 4.27117 8.95046
2 3.1214 4.66461 11.9234
2 2.82748 4.53435 1.96909
2 7.80486 2.45071 11.1356
2 10.0631 6.8941 2.12307
2 3.55521 9.08675 11.0984
2 11.0061 2.98006 5.07126
2 0.689695 1.32566 6.30287
2 1.2957 11.0832 0.761489
2 8.62375 9.62258 10.4986
2 3.62551 11.5311 3.21082
2 3.29823 1.21554 5.01239
2 11.2435 1.76793 0.412253
2 7.62696 1.45307 6.40583
2 1.49873 1.43619 1.61062
2 10.5084 1.66094 7.22714
2 9.6451 12.1091 0.641114
2 3.03142 9.16066 3.33446
2 11.3813 2.87599 2.67766
2 8.74727 0.274915 9.01604
2 6.23051 0.455557 6.29869
2 12.2478 11.5643 8.70832
2 0.456003 3.72985 0.279656
2 2.77369 11.237 9.05966
2 11.2347 9.23087 12.5756
2 8.56293 2.37222 8.39051
2 1.31949 9.86177 11.6314
2 4.51041 11.3228 6.02091
2 10.2889 2.2578 11.2447
2 0.323647 8.28799 1.99448
2 11.6921 12.0495 11.495
2 1.15976 11.0106 2.74757
2 9.16882 11.9006 11.4218
2 4.13636 9.02472 1.19611
1 8.42945 6.9257 6.64463
1 5.62791 7.59395 5.04083
1 2.6725 5.29674 7.17526
1 7.36175 0.806619 3.17263
1 0.886676 7.04718 9.3845
1 9.25641 10.496 1.73535
1 10.2196 5.48799 8.49186
1 5.4999 2.56478 1.32587
1 4.3073 5.35683 2.99119
1 6.26496 1.19224 11.0208
1 9.57607 5.54638 2.94244
1 3.25446 0.624005 9.21736
1 11.8031 4.32393 5.63132
1 3.84522 3.30159 11.4971
1 4.78118 8.70586 11.9763
1 8.05854 8.43196 11.5246
1 11.1675 7.68624 0.959149
1 2.43874 9.69157 10.0412
1 2.01513 4.9625 0.441261
1 8.7702 3.2096 10.0746
1 4.61209 0.764636 6.38821
1 8.47431 11.4073 10.132
1 10.0517 2.60985 3.73881
1 2.96829 3.29088 5.04272
1 12.2866 2.36038 1.46183
1 8.95697 1.07008 7.56806
1 2.11686 12.0805 1.98435
1 11.8988 0.881483 7.33542
1 12.1705 10.5382 12.204
1 4.17349 10.3393 4.33028
1 10.3274 0.747374 12.088
1 1.64242 9.21584 2.56053
96
 Atoms. Timestep: 12000
2 10.326 6.43959 8.94342
2 3.00513 2.30927 10.4321
2 10.473 5.01258 6.22184
2 7.69056 11.7246 10.6963
2 1.3378 6.52344 8.4485
2 7.94247 1.43044 2.85208
2 6.46686 9.00453 12.4185
2 3.90003 1.83689 12.2499
2 7.44393 8.55169 7.71419
2 5.36587 8.87226 3.86354
2 4.04605 4.92205 3.53828
2 5.53374 1.58915 3.19428
2 1.36687 4.79555 7.24864
2 9.64518 11.9521 1.06057
2 0.731817 4.52575 4.5254
2 5.04762 3.27648 1.32764
2 1.35189 2.38739 6.58406
2 4.90339 0.793814 9.49366
2 3.23804 1.47805 7.68758
2 5.53936 2.88365 10.4744
2 11.7089 8.3281 7.1538
2 6.04131 1.48703 12.0839
2 2.58525 5.61229 10.8253
2 7.01536 7.40309 4.69716
2 8.98181 6.42539 6.72374
2 5.02697 6.3207 2.41508
2 2.95963 5.48737 6.13575
2 7.05132 2.22845 5.83826
2 2.0149 8.70996 9.69697
2 9.15518 8.21335 2.19148
2 8.94943 3.69822 8.693
2 3.43595 5.39736 8.98398
2 4.73271 5.30887 11.9792
2 7.88746 1.8144 9.22693
2 12.2576 6.39986 2.19066
2 3.67137 9.89686 11.5441
2 10.3238 2.85085 5.13956
2 9.80269 11.3986 4.0616
2 0.597372 0.726586 2.30534
2 8.56573 9.41077 11.4497
2 3.24335 10.8272 3.75616
2 3.50937 2.51628 5.32525
2 12.0173 3.7522 11.3937
2 7.08768 7.29771 1.89446
2 3.45456 1.72962 2.43832
2 10.589 9.22889 9.08921
2 10.6062 2.25844 1.99315
2 2.64116 8.77535 5.10563
2 11.5879 3.394 2.47419
2 8.09356 9.93166 8.17414
2 4.79733 1.65322 5.50422
2 10.311 10.5488 6.61624
2 3.03613 5.44301 1.09777
2 2.5894 11.1632 9.59046
2 11.6055 9.37426 1.62445
2 10.1059 12.0715 8.75893
2 1.01467 10.3748 11.5644
2 3.27243 10.8905 6.10467
2 9.7681 2.46609 11.0384
2 11.7432 8.36321 3.62531
2 0.694907 1.11467 12.303
2 1.26796 11.7724 5.07479
2 9.49364 10.699 10.1207
2 4.66966 7.63911 10.766
1 7.4393 7.51067 6.47736
1 5.8699 7.23969 3.37335
1 2.48605 5.71286 7.63258
1 6.59521 1.53857 4.48409
1 11.977 7.76779 8.93203
1 9.41766 1.20543 2.69452
1 9.40999 5.24658 7.70746
1 4.89333 1.48706 1.55
1 4.29392 4.66746 1.69653
1 6.45071 1.43629 10.1213
1 12.1484 4.77134 2.84222
1 3.52073 1.22656 9.22777
1 11.859 3.77496 5.92401
1 3.81686 3.50105 11.1113
1 4.95787 9.00051 11.8389
1 7.99806 8.33675 0.875485
1 11.0398 8.00443 2.27987
1 2.13342 10.0831 10.5741
1 4.09319 5.99585 10.4924
1 9.39417 1.8693 9.45108
1 2.63494 1.27149 6.23679
1 9.05843 11.1258 11.691
1 8.2869 3.42598 5.32574
1 3.63437 4.23613 5.21056
1 1.691 4.87985 12.1696
1 10.0726 10.5126 8.26393
1 2.17855 12.1827 3.48169
1 11.0289 11.0969 5.01431
1 0.989015 10.8429 1.14278
1 4.35456 9.66627 4.94099
1 10.9916 2.4977 12.1015
1 1.01267 8.40345 5.14812
96
 Atoms. Timestep: 14000
2 10.9644 7.28933 9.67648
2 3.64025 2.24253 10.1929
2 10.6909 5.79908 7.65016
2 7.89774 12.1826 10.6382
2 3.1863 8.28729 7.04177
2 8.14275 12.259 3.36684
2 5.53471 8.68483 0.145651
2 2.72772 2.15801 12.6473
2 11.5919 9.80799 8.94274
2 1.10161 6.74044 2.70827
2 1.9466 2.1746 2.82627
2 5.94086 1.26891 2.69328
2 0.972782 6.60665 6.35193
2 9.16778 11.2201 13.1357
2 12.3829 3.79134 6.38958
2 4.69333 1.7576 0.928311
2 2.61942 1.93987 4.25331
2 5.86206 1.45985 9.75335
2 3.95794 1.1013 7.69004
2 5.8805 2.66795 11.4386
2 11.0958 8.65269 7.02668
2 6.21091 0.859234 12.5985
2 3.86821 4.27481 10.985
2 2.33121 4.92454 4.03522
2 7.98257 5.92355 8.53975
2 1.4942 4.35285 1.37405
2 3.74297 5.98596 5.32857
2 10.0933 3.30357 5.48081
2 3.7931 8.90336 9.69914
2 8.03909 9.17653 1.72768
2 9.4082 3.83702 8.83469
2 4.69428 6.77558 9.02019
2 11.956 2.81915 1.30541
2 8.29522 2.05054 10.56
2 9.73488 8.432 4.66683
2 3.74778 10.1301 11.8551
2 7.85801 5.4136 5.59027
2 12.1729 11.1265 5.06803
2 1.5992 11.9658 0.773232
2 7.84295 10.0519 12.0825
2 2.18353 9.64289 2.10801
2 4.15602 3.07059 5.42598
2 2.33991 2.94158 9.65529
2 5.90267 11.0302 0.868931
2 4.1798 11.4795 1.8614
2 12.0977 11.9561 7.80821
2 9.02825 1.13006 1.76058
2 12.4141 8.02344 4.18426
2 0.368035 4.57783 9.12556
2 9.71035 10.1526 7.37018
2 7.40895 2.58493 4.59249
2 2.02101 11.4509 3.32032
2 11.2594 2.52091 3.50437
2 4.1762 11.5418 9.86672
2 9.19191 10.2422 3.09529
2 10.0388 0.494034 8.488
2 1.60738 11.2782 10.4463
2 4.66276 1.10511 4.9706
2 11.4653 2.96309 9.93566
2 11.3061 9.93599 5.13683
2 0.727577 1.39237 11.1011
2 2.18332 0.560995 6.17211
2 10.4439 11.0827 10.5539
2 3.89658 6.96153 11.8407
1 11.6008 8.22421 8.57138
1 1.18997 5.06176 2.82077
1 2.49119 7.24393 6.15473
1 7.13434 1.31562 3.87016
1 4.56315 8.39761 8.12291
1 9.07799 11.6853 1.90559
1 9.18099 5.12823 7.90574
1 5.52875 0.210425 1.35005
1 1.43494 2.64329 1.27686
1 6.83786 1.1828 11.0904
1 11.5832 2.66988 5.03367
1 4.39816 0.957487 9.10719
1 12.2701 5.49643 7.34718
1 4.33469 2.90417 12.2498
1 4.34409 8.45184 12.2841
1 6.80379 9.64751 0.687421
1 8.7789 8.65758 3.46196
1 3.0897 10.4916 10.0342
1 4.22552 5.94442 10.386
1 9.99099 2.19046 9.38106
1 3.39596 1.93385 5.89193
1 9.05498 11.3133 11.5833
1 8.47518 4.0096 5.06941
1 3.75442 4.47797 4.55208
1 10.3496 2.29696 1.86963
1 10.7205 11.2015 8.89856
1 2.62225 11.0992 1.82406
1 1.55339 11.6707 5.04688
1 1.37317 12.2486 11.8691
1 1.41026 8.2748 3.27105
1 0.824281 2.89384 10.2671
1 11.0674 8.16615 5.45943
96
 Atoms. Timestep: 16000
2 0.310946 8.52905 8.07212
2 2.0513 1.35564 9.76989
2 12.2653 4.79816 7.83954
2 6.97199 0.647844 11.1661
2 2.87403 7.02977 8.16374
2 8.21259 1.7905 2.46861
2 5.24385 6.54262 12.4874
2 0.911656 2.52678 12.2665
2 10.9503 10.713 8.532
2 3.06341 6.83044 2.78742
2 3.11741 2.65291 12.3062
2 4.92365 11.4392 2.26537
2 2.33907 5.5979 6.58472
2 8.36719 0.58606 0.340923
2 0.304229 5.49834 5.14982
2 3.36016 10.7709 11.8993
2 8.77137 3.89106 3.04061
2 4.35143 1.50175 9.99332
2 3.64476 1.08844 7.63757
2 4.54165 2.20531 11.834
2 11.8807 9.76749 5.65296
2 4.71292 0.563351 0.683209
2 0.505567 3.1582 9.86896
2 4.21159 4.69426 2.93772
2 11.906 5.83813 10.74
2 2.77309 4.64229 0.758968
2 5.29079 5.79549 5.62978
2 10.097 5.44044 4.34854
2 2.2175 9.0472 9.56426
2 7.18945 9.34875 1.85843
2 10.0721 4.39471 9.48899
2 1.29959 7.63325 10.6241
2 1.94251 2.54545 2.34974
2 7.82045 2.68043 10.0826
2 10.1796 8.6169 3.25988
2 3.57771 8.03085 11.1132
2 9.31122 5.82929 1.67721
2 11.4316 11.5044 4.31186
2 5.09111 10.5926 3.80012
2 7.0483 10.6929 12.1685
2 3.94969 8.85576 4.46144
2 4.27527 3.73095 5.43476
2 12.0757 12.4208 11.1648
2 4.8237 9.92746 0.554334
2 2.52121 10.5026 1.03131
2 0.965764 0.418441 6.78029
2 10.0673 1.27935 2.95639
2 1.29611 8.82039 4.39961
2 2.32549 3.19705 6.10563
2 10.1281 1.34831 9.21322
2 5.98833 7.71931 12.8721
2 1.23742 11.8004 2.99524
2 10.7607 2.34486 5.85249
2 3.53911 10.9238 9.66221
2 9.52089 11.2982 2.63762
2 8.33121 10.9696 9.10898
2 2.91074 10.9644 3.48429
2 6.04699 3.70518 3.2857
2 10.4846 10.7025 0.166528
2 11.9487 10.2398 3.62218
2 0.704205 11.5095 1.03656
2 0.595723 0.886773 3.90732
2 9.49374 12.083 10.9954
2 2.49325 6.04189 11.8438
1 11.6891 9.77358 7.54663
1 2.83624 5.55408 2.18586
1 3.97804 6.19291 7.11495
1 7.41292 2.99835 2.93747
1 1.56749 7.72252 8.788
1 9.22684 0.609613 1.90576
1 11.6457 4.527 9.55548
1 3.98924 11.1556 0.838248
1 1.98627 2.95794 0.639968
1 5.98576 1.99736 10.5062
1 11.3552 6.27978 4.97608
1 3.3496 0.401423 9.02102
1 1.10952 4.45766 6.31768
1 0.401873 1.69461 10.8341
1 3.98831 6.6167 11.4986
1 6.30307 9.36175 0.287447
1 9.23935 9.60562 2.32434
1 3.13525 9.57217 10.7051
1 1.17166 6.43852 11.5615
1 9.04698 2.94953 9.20283
1 3.83598 2.33227 6.44382
1 8.28169 12.2172 11.8018
1 9.88768 5.05621 2.80967
1 5.2616 4.70561 4.3085
1 11.068 1.00764 4.62083
1 9.86849 11.8966 9.33944
1 3.92223 10.5337 4.82962
1 2.39607 1.06014 3.0864
1 1.62038 10.3001 2.39369
1 2.70874 7.88672 3.92145
1 11.83 11.6686 12.6975
1 11.5787 8.68724 4.30182
96
 Atoms. Timestep: 18000
2 1.75231 8.13147 8.84294
2 2.25711 1.81915 10.3273
2 11.1799 5.14099 8.97493
2 7.64185 1.3482 10.0447
2 3.04737 5.86209 8.72841
2 8.24842 4.92721 1.90506
2 11.053 6.85766 3.01761
2 1.9433 3.48382 12.3929
2 11.4051 10.6686 8.72685
2 1.00614 5.97894 2.95098
2 4.83509 3.88022 1.48743
2 4.33365 1.49271 10.5326
2 1.50722 4.29047 7.18029
2 6.72523 11.9902 12.2055
2 10.8005 5.08374 6.13437
2 3.89155 9.78538 0.786485
2 10.5609 5.6035 12.0299
2 4.92225 11.8517 8.39318
2 2.22708 1.18003 8.15898
2 5.6145 10.8251 6.50899
2 0.893079 9.1658 6.16674
2 2.82162 0.787346 2.82322
2 10.8475 3.94684 10.9454
2 6.08857 6.30247 1.97271
2 8.84163 6.69154 10.1677
2 4.44842 5.94371 12.6563
2 4.4719 4.3311 6.81147
2 10.7136 4.9589 2.85508
2 5.40532 8.60796 11.6014
2 8.93834 8.85276 2.16857
2 9.2912 3.87315 9.48611
2 3.62545 7.82338 10.6023
2 2.94745 5.29493 2.28453
2 7.62903 1.726 7.90003
2 11.5637 9.81265 3.63491
2 1.23425 8.54437 11.6109
2 10.6539 3.36163 1.41784
2 10.2353 11.7366 5.10783
2 6.75245 7.28468 4.96931
2 8.70261 10.1387 12.2684
2 4.07966 7.10197 3.97218
2 1.53807 2.1349 5.47772
2 11.9456 1.9775 12.1976
2 4.26866 0.96178 1.31888
2 6.22025 11.7226 3.63946
2 7.8532 8.91544 9.23386
2 6.61532 2.8976 1.78786
2 1.47985 8.27508 3.59151
2 11.543 2.85722 7.73543
2 10.101 1.41053 8.88944
2 7.17224 7.6638 12.6057
2 4.14924 0.591984 4.44674
2 10.2082 2.45057 4.16952
2 3.34752 10.6382 10.2088
2 10.9944 1.05468 2.32895
2 9.4623 11.3939 6.82923
2 4.86864 8.95509 4.34287
2 5.68049 4.36135 3.9196
2 9.38083 1.14047 12.079
2 2.95911 10.4056 4.47173
2 11.2362 9.60436 1.50215
2 1.24293 0.711337 4.06162
2 9.21182 10.8908 10.0408
2 10.1974 9.0361 10.9989
1 11.8918 9.40938 8.06351
1 5.59414 7.00879 12.0436
1 3.14643 4.59697 7.57261
1 6.50612 4.39508 2.4409
1 3.09715 7.3935 9.15701
1 5.65035 1.67641 0.875487
1 10.0001 5.38061 10.4671
1 4.00801 11.0202 1.70575
1 3.46913 4.38614 0.786865
1 6.27243 0.664885 7.80707
1 10.42 4.25149 4.39254
1 3.25946 0.786334 9.4049
1 11.3206 4.34489 7.52287
1 1.11653 2.87874 11.0786
1 11.5587 9.4777 11.9795
1 8.41134 8.73525 0.757105
1 10.525 8.74669 2.91357
1 4.14056 9.40881 11.0908
1 9.0324 8.38062 9.98017
1 8.80796 2.32748 9.04064
1 1.08965 1.75877 7.37513
1 8.26502 11.484 11.2904
1 9.95443 4.70948 1.52004
1 4.98044 3.46715 5.20681
1 11.0909 0.857135 3.89863
1 9.97943 11.3584 8.65867
1 5.65635 7.19156 3.74366
1 2.77034 1.44334 4.4132
1 5.09405 10.7128 4.64501
1 2.42186 6.69667 3.55366
1 10.5741 1.64337 0.857459
1 1.36127 9.6299 4.42924
96
 Atoms. Timestep: 20000
2 0.435749 9.08267 7.35116
2 2.62672 3.66636 1.10312
2 0.583421 2.58061 8.46566
2 8.90148 1.08212 11.1684
2 1.33986 7.33724 9.35029
2 8.3766 4.67474 2.28841
2 10.246 6.50075 2.18269
2 3.54014 1.5666 10.7481
2 9.93262 8.63674 7.69274
2 1.14638 6.20978 4.08034
2 5.77709 6.04002 1.97665
2 4.19714 1.42543 9.31222
2 1.92991 4.86701 8.67903
2 7.12431 0.931254 12.8741
2 12.1844 4.53295 6.24946
2 2.50926 11.6488 10.9693
2 10.193 5.07539 0.559603
2 6.20236 11.5484 7.10936
2 4.01197 0.732588 6.93811
2 7.95432 10.6369 5.43674
2 11.2491 9.60048 5.03873
2 2.79098 10.0662 0.877228
2 1.23722 3.59149 10.5939
2 5.79468 5.80457 6.2789
2 10.5033 3.78639 10.6877
2 3.61656 7.70267 0.511766
2 11.8823 5.70918 11.1748
2 11.5922 5.09013 3.19979
2 4.37545 10.1807 11.9373
2 8.70255 8.12387 1.54993
2 10.3917 2.14196 9.39111
2 2.71526 9.18821 9.59101
2 2.83644 6.74863 2.85023
2 8.81455 0.421497 8.09463
2 11.1912 9.10166 2.41605
2 8.90539 9.03538 10.4784
2 11.0415 3.56788 1.5846
2 11.5884 11.8676 4.43736
2 3.49096 9.28949 7.66125
2 7.81838 10.4698 0.494733
2 3.90359 6.40667 4.81112
2 4.36128 3.56252 6.35728
2 0.363545 2.38652 12.4592
2 4.11817 0.915011 0.385562
2 5.76665 0.437477 2.41514
2 8.17832 8.83791 4.42312
2 6.35302 3.03337 1.58186
2 1.21662 8.62804 4.41205
2 1.99935 2.55862 7.0101
2 10.1377 11.1687 9.65146
2 5.81045 9.31176 1.52627
2 2.77906 0.644872 2.10171
2 12.1865 3.00597 4.24081
2 4.70496 10.974 9.41451
2 10.8588 1.48559 2.61431
2 8.25668 10.2437 7.81078
2 5.87529 9.69767 5.25591
2 5.74762 4.24919 4.08704
2 9.76555 0.612471 0.514108
2 0.481031 11.0067 2.67011
2 10.4459 8.18256 12.6557
2 1.34076 0.346295 0.454323
2 6.06408 11.0732 2.76526
2 9.001 6.01287 11.2122
1 11.1797 8.82301 6.60133
1 4.21815 9.21508 0.797145
1 1.2731 5.76035 9.88613
1 6.57516 4.45736 2.52615
1 1.73382 8.56896 8.20148
1 5.87601 1.46947 1.04334
1 11.9157 2.69352 9.95979
1 2.62684 0.929922 11.9767
1 4.17352 6.32465 1.51097
1 7.84113 11.4534 6.96726
1 0.606456 4.72573 4.51332
1 4.87921 12.098 8.20439
1 1.10304 3.93185 7.5555
1 1.86898 3.21364 12.2188
1 9.18421 7.87622 11.396
1 7.65585 9.05985 1.02756
1 10.3167 7.92662 1.5889
1 3.67022 10.2677 10.4085
1 10.251 5.15584 11.6969
1 9.54279 0.935614 9.53508
1 3.23161 2.18909 6.1216
1 8.38418 12.1872 12.5805
1 10.2801 4.79749 2.43991
1 5.00341 4.83612 5.2862
1 11.712 1.52361 4.04501
1 9.28747 9.30469 8.97676
1 4.22649 9.98171 6.14475
1 1.91978 11.1858 1.80316
1 7.10022 10.1123 4.14063
1 2.48051 7.31954 4.09319
1 11.1614 1.93008 1.02814
1 12.0873 9.64783 3.64016
96
 Atoms. Timestep: 22000
2 0.564285 7.81386 7.79771
2 2.00374 2.83588 0.38084
2 11.854 3.71895 7.85497
2 8.8741 11.832 11.166
2 3.15876 7.87249 9.53039
2 8.94438 4.83587 3.08798
2 9.49054 6.96069 1.84048
2 1.07681 11.1241 9.22776
2 10.2471 8.69097 6.80096
2 2.04653 5.80255 3.57425
2 7.19341 5.57423 1.98238
2 2.53094 12.0488 9.5074
2 2.18494 5.32174 8.10013
2 2.28242 3.05919 8.7956
2 0.747565 4.90258 5.30525
2 4.05731 12.0132 0.271217
2 11.551 6.17072 0.684318
2 4.73647 11.972 8.23438
2 2.15008 0.243413 7.22162
2 5.59605 10.5705 6.94325
2 0.648086 8.177 4.52026
2 3.24982 9.87762 2.4783
2 12.3948 3.0735 10.3828
2 4.53649 1.78631 5.74901
2 1.05805 5.64515 11.668
2 3.9282 7.38319 1.67741
2 11.9786 6.8463 9.95341
2 11.4362 4.87485 2.58829
2 2.99904 9.20553 0.482427
2 8.04272 9.19352 1.95179
2 10.0577 1.66626 9.07323
2 4.37234 10.047 10.8441
2 4.81173 6.47649 3.31308
2 7.16625 12.3155 8.94796
2 11.1181 8.61284 2.24676
2 9.26664 9.43409 9.63266
2 9.92136 4.03038 1.10965
2 1.02702 1.54947 5.33255
2 4.86563 8.1096 8.22011
2 8.11145 11.46 2.17973
2 3.43426 4.19869 4.9006
2 3.23678 0.292646 4.09669
2 11.8068 2.80166 12.731
2 3.66587 1.79193 11.4553
2 4.66177 2.3018 3.2153
2 6.76439 10.2533 3.99433
2 7.41656 3.18898 1.38629
2 4.28328 7.61039 5.06103
2 2.48042 3.09078 6.46323
2 9.38962 10.9989 8.40709
2 5.92714 8.65524 2.33431
2 4.08589 1.99203 1.72103
2 0.811014 2.9071 3.22473
2 3.52362 9.53476 7.16373
2 11.0841 1.5174 2.6079
2 7.1807 9.58445 8.84264
2 5.22243 9.40813 5.33505
2 6.19936 4.00514 4.23561
2 9.98338 1.2712 0.261159
2 1.27819 12.02 3.00004
2 10.1578 9.50243 12.9293
2 2.66347 0.58752 1.63389
2 6.42875 0.707377 5.45899
2 11.5074 8.46973 11.0739
1 11.982 7.85294 6.21652
1 2.80276 8.38445 1.8179
1 1.59143 6.70644 8.91777
1 7.47849 4.25429 2.79991
1 4.54141 8.84563 9.93591
1 3.23288 1.97574 9.71167
1 11.4493 2.45651 8.94961
1 3.22426 1.40458 12.9214
1 5.76215 6.9714 1.8923
1 6.11555 11.1467 8.35459
1 0.90873 4.56708 3.56181
1 3.31708 11.0368 7.93989
1 1.32008 4.06495 7.01993
1 0.879771 3.69433 11.8899
1 10.2827 9.29835 11.2287
1 6.7786 10.1062 2.14554
1 9.54395 8.7148 1.84724
1 3.70328 10.3975 12.2893
1 11.852 6.67536 11.5651
1 8.88813 0.404065 9.34668
1 2.76395 1.237 5.93931
1 8.84178 11.9734 0.264651
1 10.0864 5.39771 1.75608
1 4.88473 3.18034 4.82388
1 0.575063 1.21673 3.80959
1 8.77721 9.51905 7.88106
1 4.49072 8.39601 6.43439
1 2.74381 11.5279 2.82241
1 5.7382 11.2109 5.2401
1 3.49026 6.131 4.42171
1 10.7692 2.50724 1.31331
1 0.650304 8.17972 2.83023
96
 Atoms. Timestep: 24000