LAMMPS (2 Aug 2023 - Update 3)
units metal
boundary p p p
atom_style full
pair_style tersoff
neighbor 2.0 bin
neigh_modify delay 1




read_data SiO.data
Reading data file ...
  orthogonal box = (0 0 0) to (12.589463 12.589463 13.222096)
  1 by 1 by 1 MPI processor grid
WARNING: Atom style in data file atom-ID molecule-ID atom-type q x y z differs from currently defined atom style full (../read_data.cpp:621)
  reading atoms ...
  96 atoms
Finding 1-2 1-3 1-4 neighbors ...
  special bond factors lj:    0        0        0       
  special bond factors coul:  0        0        0       
     0 = max # of 1-2 neighbors
     0 = max # of 1-3 neighbors
     0 = max # of 1-4 neighbors
     1 = max # of special neighbors
  special bonds CPU = 0.000 seconds
  read_data CPU = 0.004 seconds
replicate 1 1 1
Replication is creating a 1x1x1 = 1 times larger system...
  orthogonal box = (0 0 0) to (12.589463 12.589463 13.222096)
  1 by 1 by 1 MPI processor grid
  96 atoms
Finding 1-2 1-3 1-4 neighbors ...
  special bond factors lj:    0        0        0       
  special bond factors coul:  0        0        0       
     0 = max # of 1-2 neighbors
     0 = max # of 1-3 neighbors
     0 = max # of 1-4 neighbors
     1 = max # of special neighbors
  special bonds CPU = 0.000 seconds
  replicate CPU = 0.001 seconds

pair_coeff * *  /root/Desktop/host/job1/SiO.tersoff Si O
Reading tersoff potential file /root/Desktop/host/job1/SiO.tersoff with DATE: 2010-08-16



group Si type 1
32 atoms in group Si
group O type 2
64 atoms in group O
#create_bonds many SiO SiO 1 0.5 10

dump dmp all xyz 2000 dump.lammpstrj



variable apot equal pe
# first number: number of steps to get current temp
# second number: calculate average n number of temp read above.
# third number: temp record (this must be larger than the one above )

variable atemp equal temp
fix temp_info all ave/time 10 200 2000 v_atemp file temperature.dat

#The cutoff used for pairwise computation (any pair style) and the
#associated neighbor list is the maximum cutoff that any compute
#can use. Atoms don't know any info about their neighbors
#further away than that.

# compute coord number
compute coor12 Si coord/atom cutoff 2.5 group O
compute coor11 Si coord/atom cutoff 2.5 group Si
compute coor22 O coord/atom cutoff 2.0 group O

compute sumcoor12 all reduce ave c_coor12
compute sumcoor11 all reduce ave c_coor11
compute sumcoor22 all reduce ave c_coor22


fix 12coord all ave/time  10 200 2000 c_sumcoor12 file Si-O_coord_number.dat
fix 11coord all ave/time  10 200 2000  c_sumcoor11 file Si-Si_coord_number.dat
fix 22coord all ave/time  10 200 2000  c_sumcoor22 file O-O_coord_number.dat




# unit cell information
variable avol equal vol
variable alx equal lx
variable aly equal ly
variable alz equal lz
fix cell_info all ave/time 10 200 2000 v_avol v_alx v_aly v_alz file cell_volume.dat


fix potential_info all ave/time 10 200 2000 v_apot file potential-energy.dat
thermo 1000



velocity all create 6000 9921762 mom yes rot no dist gaussian
fix npt1 all npt temp 6000 5000 0.1 iso 0 0  1
timestep 0.001
#run 500
run 80000
Neighbor list info ...
  update: every = 1 steps, delay = 1 steps, check = yes
  max neighbors/atom: 2000, page size: 100000
  master list distance cutoff = 4.8
  ghost atom cutoff = 4.8
  binsize = 2.4, bins = 6 6 6
  4 neighbor lists, perpetual/occasional/extra = 1 3 0
  (1) pair tersoff, perpetual
      attributes: full, newton on
      pair build: full/bin
      stencil: full/bin/3d
      bin: standard
  (2) compute coord/atom, occasional, copy from (1)
      attributes: full, newton on
      pair build: copy
      stencil: none
      bin: none
  (3) compute coord/atom, occasional, copy from (1)
      attributes: full, newton on
      pair build: copy
      stencil: none
      bin: none
  (4) compute coord/atom, occasional, copy from (1)
      attributes: full, newton on
      pair build: copy
      stencil: none
      bin: none
Per MPI rank memory allocation (min/avg/max) = 6.021 | 6.021 | 6.021 Mbytes
   Step          Temp          E_pair         E_mol          TotEng         Press          Volume    
         0   6000          -638.06385      0             -564.38556      73800.118      2095.6304    
      1000   5730.8392     -565.25221      0             -494.87914      8745.5606      2280.1392    
      2000   6000.6848     -545.7914       0             -472.1047      -9828.2045      2409.8178    
      3000   6121.2692     -561.15502      0             -485.98758      36406.226      2243.6268    
      4000   5519.0122     -562.05217      0             -494.28028     -883.23657      2246.4518    
      5000   6300.1473     -567.09983      0             -489.73582     -3418.0882      2314.8401    
      6000   5337.586      -541.70467      0             -476.16064     -34080.303      2150.4323    
      7000   5403.6176     -525.26915      0             -458.91427     -13046.83       1751.5674    
      8000   5494.2362     -517.47419      0             -450.00655     -49501.379      1977.9563    
      9000   7118.7963     -536.12138      0             -448.70459     -12577.84       1835.2134    
     10000   5176.9797     -513.37659      0             -449.80476     -46699.04       1873.2018    
     11000   5911.2467     -538.12878      0             -465.54036     -29273.022      1531.6561    
     12000   5935.8343     -529.35857      0             -456.46822     -33108.171      1540.6085    
     13000   6107.06       -506.98647      0             -431.99352     -14135.1        1841.2192    
     14000   6740.5377     -522.89293      0             -440.12105     -28222.699      1911.0457    
     15000   5796.9216     -516.46982      0             -445.28529      56871.993      1934.9128    
     16000   5707.5053     -505.38472      0             -435.29819      20558.901      1941.7259    
     17000   5577.0356     -508.84692      0             -440.36252     -3274.2272      1788.9997    
     18000   5262.0931     -525.98204      0             -461.36504     -3737.7243      1579.0431    
     19000   6087.4287     -522.35617      0             -447.60429      5344.4783      1735.1493    
     20000   5984.293      -537.23226      0             -463.74686     -27257.483      1837.2759    
     21000   5906.7949     -527.49187      0             -454.95811     -48414.553      2062.3036    
     22000   4834.1795     -528.87124      0             -469.5089      -60190.656      1799.8426    
     23000   4948.328      -529.9557       0             -469.19165      4147.8523      2270.9824    
     24000   4677.4783     -533.98583      0             -476.54773      12924.605      2024.2104    
     25000   5884.7086     -519.96482      0             -447.70228     -45127.377      2059.3045    
     26000   4932.1945     -519.75943      0             -459.19349     -53204.786      2090.7242    
     27000   5498.9293     -524.5909       0             -457.06562     -39093.899      1905.233     
     28000   5148.4752     -541.00344      0             -477.78164     -24134.79       1922.822     
     29000   6441.2723     -534.18055      0             -455.08357      67141.969      1692.1318    
     30000   5645.9257     -521.72884      0             -452.39849     -8626.5761      1606.0316    
     31000   5149.4135     -532.94067      0             -469.70735     -5170.9824      1378.7184    
     32000   5297.4951     -545.58592      0             -480.5342       65601.333      1437.0447    
     33000   6036.6766     -538.29597      0             -464.16731      49777.687      1412.0509    
     34000   5724.557      -545.79329      0             -475.49737      52303.942      1457.7323    
     35000   5283.8945     -546.84454      0             -481.95982     -2850.2726      1483.9026    
     36000   5985.9475     -537.51261      0             -464.00689     -21658.39       1499.931     
     37000   5384.6059     -530.91652      0             -464.7951       7757.0842      1540.8542    
     38000   5750.2941     -549.18552      0             -478.57355      21972.483      1487.3359    
     39000   5655.5714     -537.77058      0             -468.32178     -25980.446      1667.4492    
     40000   5159.5747     -542.33664      0             -478.97854      22743.909      1641.0568    
     41000   5502.4585     -552.33749      0             -484.76887     -11434.747      1454.943     
     42000   5953.3476     -528.91203      0             -455.80663     -18360.947      1748.213     
     43000   4867.3165     -535.65132      0             -475.88207      543.50758      1621.5232    
     44000   6079.8009     -534.28704      0             -459.62883      51507.573      1491.6835    
     45000   5142.2895     -543.47221      0             -480.32637     -46977.33       1565.4882    
     46000   5700.2108     -537.55879      0             -467.56183      18135.607      1573.2637    
     47000   5352.3865     -548.78897      0             -483.0632      -28355.804      1701.2841    
     48000   5195.0808     -548.70673      0             -484.91263      6407.5323      1618.3441    
     49000   5696.871      -536.56693      0             -466.61098     -26304.754      1629.733     
     50000   5484.4955     -541.2135       0             -473.86546     -44788.053      1700.5304    
     51000   5911.6633     -539.48613      0             -466.89259      61317.681      1475.5294    
     52000   5659.4537     -535.28249      0             -465.78602      882.45047      1776.2544    
     53000   4999.4179     -544.49572      0             -483.1043      -33007.716      1791.2253    
     54000   5295.0171     -534.99955      0             -469.97826     -12422.894      1589.4952    
     55000   6031.6908     -541.8994       0             -467.83197     -10624.396      1809.5741    
     56000   5616.0033     -539.30725      0             -470.34434     -13318.525      1540.0767    
     57000   5235.1666     -555.06781      0             -490.78146     -3596.4848      1516.1579    
     58000   5897.0985     -552.20461      0             -479.78993      31329.933      1583.883     
     59000   5084.558      -544.70104      0             -482.26413     -7031.8458      1661.8835    
     60000   4463.8094     -537.85658      0             -483.04228      12108.642      1555.8214    
     61000   4953.8536     -534.25811      0             -473.42621     -54947.647      1692.6567    
     62000   5585.7913     -537.32645      0             -468.73454      12853.454      1520.7632    
     63000   6105.4623     -546.21742      0             -471.2441       61413.898      1397.8243    
     64000   4874.426      -558.34666      0             -498.49011     -21241.043      1530.1993    
     65000   5295.053      -549.42642      0             -484.40469     -38357.96       1539.2957    
     66000   5335.1578     -561.5643       0             -496.05009      9986.5349      1617.9539    
     67000   4690.9173     -560.25486      0             -502.65174      26810.315      1520.53      
     68000   4978.9207     -552.87438      0             -491.73466      46363.508      1476.8679    
     69000   5171.1151     -552.10035      0             -488.60053      23691.259      1504.7036    
     70000   5698.2815     -536.27827      0             -466.305        2021.0774      1557.9789    
     71000   5156.2623     -551.32604      0             -488.00862     -13324.851      1569.9626    
     72000   5448.2499     -550.71187      0             -483.80892     -32932.7        1587.901     
     73000   5383.252      -555.34923      0             -489.24443     -23.800494      1464.1295    
     74000   4868.1357     -556.52169      0             -496.74238      71185.286      1480.6643    
     75000   4213.8175     -559.12712      0             -507.38265      15834.265      1438.4148    
     76000   4790.2183     -550.60411      0             -491.7816       23824.293      1602.2625    
     77000   5024.7906     -551.90494      0             -490.20195     -8076.7445      1499.6828    
     78000   4841.1965     -557.57813      0             -498.12962     -3530.7622      1453.8644    
     79000   6445.6245     -551.64754      0             -472.49712     -3687.0396      1471.0708    
     80000   5263.8281     -556.70995      0             -492.07165     -23041.404      1542.5682    
Loop time of 7.17812 on 1 procs for 80000 steps with 96 atoms

Performance: 962.926 ns/day, 0.025 hours/ns, 11144.973 timesteps/s, 1.070 Matom-step/s
96.3% CPU use with 1 MPI tasks x no OpenMP threads

MPI task timing breakdown:
Section |  min time  |  avg time  |  max time  |%varavg| %total
---------------------------------------------------------------
Pair    | 5.9767     | 5.9767     | 5.9767     |   0.0 | 83.26
Bond    | 0.0033014  | 0.0033014  | 0.0033014  |   0.0 |  0.05
Neigh   | 0.46952    | 0.46952    | 0.46952    |   0.0 |  6.54
Comm    | 0.21901    | 0.21901    | 0.21901    |   0.0 |  3.05
Output  | 0.0089744  | 0.0089744  | 0.0089744  |   0.0 |  0.13
Modify  | 0.46027    | 0.46027    | 0.46027    |   0.0 |  6.41
Other   |            | 0.04039    |            |       |  0.56

Nlocal:             96 ave          96 max          96 min
Histogram: 1 0 0 0 0 0 0 0 0 0
Nghost:            452 ave         452 max         452 min
Histogram: 1 0 0 0 0 0 0 0 0 0
Neighs:              0 ave           0 max           0 min
Histogram: 1 0 0 0 0 0 0 0 0 0
FullNghs:         2744 ave        2744 max        2744 min
Histogram: 1 0 0 0 0 0 0 0 0 0

Total # of neighbors = 2744
Ave neighs/atom = 28.583333
Ave special neighs/atom = 0
Neighbor list builds = 3780
Dangerous builds = 0

fix npt1 all npt temp 5000 4000 0.1 iso 0 0 1
run 80000
Per MPI rank memory allocation (min/avg/max) = 8.549 | 8.549 | 8.549 Mbytes
   Step          Temp          E_pair         E_mol          TotEng         Press          Volume    
     80000   5263.8281     -556.70995      0             -492.07165     -23041.404      1542.5682    
     81000   5016.0575     -547.65783      0             -486.06208      25957.215      1505.4724    
     82000   4312.3747     -555.27559      0             -502.32086      35238.41       1398.4044    
     83000   5832.907      -556.76258      0             -485.13615     -24216.965      1508.8821    
     84000   4953.1747     -551.22758      0             -490.40401     -23100.862      1486.9177    
     85000   4523.127      -559.58239      0             -504.03969      3477.7888      1549.9582    
     86000   4813.4274     -553.93555      0             -494.82804     -6112.4709      1470.4889    
     87000   5643.1642     -562.47323      0             -493.17679     -2858.7589      1498.1578    
     88000   5397.6426     -558.20478      0             -491.92328     -53449.367      1539.9849    
     89000   4095.5818     -551.50336      0             -501.21079     -11277.989      1598.9684    
     90000   5281.8279     -566.87287      0             -502.01353      26514.18       1541.0796    
     91000   4121.6221     -575.18558      0             -524.57324      6940.4785      1481.7571    
     92000   5676.6804     -556.43556      0             -486.72755      20610.179      1481.253     
     93000   3967.9762     -563.49367      0             -514.76806     -16902.415      1409.7814    
     94000   4598.7703     -544.22251      0             -487.75093     -13186.843      1553.3598    
     95000   4498.0287     -561.33488      0             -506.10037      28842.225      1437.1381    
     96000   5757.286      -555.70313      0             -485.0053       15397.362      1423.109     
     97000   4458.5109     -552.62591      0             -497.87667     -1003.5587      1477.0324    
     98000   4660.5119     -561.75236      0             -504.52261     -7452.6896      1388.1501    
     99000   5369.7297     -556.94075      0             -491.00201      21980.023      1333.8707    
    100000   5114.6359     -561.07632      0             -498.27006      12126.908      1393.4167    
    101000   4751.1427     -559.08051      0             -500.73784      42753.567      1294.8299    
    102000   4375.1933     -558.30707      0             -504.58095      36717.626      1340.7269    
    103000   4224.756      -566.09984      0             -514.22104      19695.915      1417.7074    
    104000   4184.0575     -552.19591      0             -500.81688     -29095.727      1563.3786    
    105000   5672.5962     -552.18182      0             -482.52396      1087.7006      1520.603     
    106000   4413.8139     -557.5138       0             -503.31343     -48333.648      1461.5058    
    107000   4968.5272     -555.94043      0             -494.92834      1262.2989      1573.3371    
    108000   4451.3402     -559.69108      0             -505.0299      -16209.958      1375.215     
    109000   5214.2706     -558.59796      0             -494.56821      48965.509      1411.0188    
    110000   5031.2541     -563.18124      0             -501.39888     -10376.802      1395.8835    
    111000   5456.7904     -568.37274      0             -501.36491     -3493.193       1414.83      
    112000   4739.3488     -562.40512      0             -504.20728      27272.983      1399.46      
    113000   4445.0495     -569.88753      0             -515.30359     -58623.528      1391.7949    
    114000   4833.8423     -564.3105       0             -504.9523       3544.5695      1417.0163    
    115000   4509.413      -561.2086       0             -505.8343      -54950.145      1535.8526    
    116000   4545.782      -563.22157      0             -507.40066      47068.785      1436.112     
    117000   4753.6245     -555.18749      0             -496.81434     -25157.703      1534.2097    
    118000   4311.6393     -562.18137      0             -509.23567      2168.2206      1458.4895    
    119000   4130.5999     -558.03717      0             -507.31458     -7359.3222      1453.9698    
    120000   4517.678      -568.03843      0             -512.56264      12803.325      1381.5641    
    121000   4367.1179     -564.41078      0             -510.78382     -9068.9287      1426.1179    
    122000   4737.5683     -563.87006      0             -505.69407     -4009.926       1443.7617    
    123000   4323.289      -564.40005      0             -511.3113       4408.7186      1393.4194    
    124000   4291.1294     -567.20844      0             -514.5146       15339.416      1458.1725    
    125000   4676.2208     -568.70958      0             -511.28693     -34219.595      1444.0364    
    126000   4919.9762     -552.733        0             -492.3171      -12246.854      1449.4906    
    127000   4131.5664     -562.59761      0             -511.86315     -32688.84       1462.0554    
    128000   4628.6747     -567.97896      0             -511.14016     -32902.863      1530.5415    
    129000   4540.8262     -565.7965       0             -510.03646     -5164.0352      1458.4571    
    130000   4245.9796     -567.24637      0             -515.10695     -640.23473      1403.5775    
    131000   4307.369      -565.28791      0             -512.39466     -25505.266      1398.3382    
    132000   3754.7116     -568.77303      0             -522.66625      30188.032      1396.862     
    133000   4515.8744     -569.07381      0             -513.62016      4179.1687      1398.5881    
    134000   4463.6994     -556.307        0             -501.49405      8245.7138      1421.5134    
    135000   3564.6173     -565.03749      0             -521.26501     -12958.216      1431.8211    
    136000   4721.3677     -566.83939      0             -508.86234      56326.087      1417.6828    
    137000   4134.3572     -563.38877      0             -512.62004      79253.144      1343.5249    
    138000   3835.0068     -564.67843      0             -517.58564     -56742.913      1384.09      
    139000   4441.5034     -567.71546      0             -513.17507     -3888.5553      1475.2458    
    140000   4515.6143     -572.17589      0             -516.72543     -2338.8652      1487.7051    
    141000   4525.8802     -565.78409      0             -510.20758     -17498.769      1499.595     
    142000   4091.1371     -574.86081      0             -524.62282      53014.135      1481.7215    
    143000   4637.4489     -568.57903      0             -511.63249     -24417.247      1560.3476    
    144000   4023.548      -562.40807      0             -513.00005      1952.9625      1548.1122    
    145000   4167.0607     -572.52633      0             -521.35602      33958.58       1498.7254    
    146000   4411.2027     -564.51889      0             -510.35058     -35664.536      1524.3366    
    147000   4206.851      -571.39244      0             -519.73351     -11439.735      1513.9377    
    148000   4095.4418     -576.19658      0             -525.90573     -35177.897      1537.1238    
    149000   4298.2956     -570.00231      0             -517.22047      8816.6504      1524.2848    
    150000   3940.7491     -570.38035      0             -521.98908     -24689.483      1539.7603    
    151000   4279.8834     -565.28201      0             -512.72627     -39188.878      1503.9135    
    152000   4440.9522     -572.01575      0             -517.48213      18944.533      1419.9088    
    153000   4104.3925     -577.57976      0             -527.179        31485.942      1363.0744    
    154000   3935.1534     -575.87894      0             -527.55638      11677.334      1341.3842    
    155000   3943.3766     -577.34516      0             -528.92162      47694.002      1375.8877    
    156000   4287.988      -571.80377      0             -519.1485      -19940.329      1436.94      
    157000   4075.8092     -571.12896      0             -521.07919     -6152.6371      1481.5545    
    158000   3386.9145     -567.36314      0             -525.7728       24487.494      1472.9552    
    159000   3953.6895     -573.1309       0             -524.58072      28436.09       1541.3166    
    160000   4407.6535     -563.00364      0             -508.87892      13814.103      1528.1611    
Loop time of 7.16405 on 1 procs for 80000 steps with 96 atoms

Performance: 964.818 ns/day, 0.025 hours/ns, 11166.873 timesteps/s, 1.072 Matom-step/s
99.2% CPU use with 1 MPI tasks x no OpenMP threads

MPI task timing breakdown:
Section |  min time  |  avg time  |  max time  |%varavg| %total
---------------------------------------------------------------
Pair    | 6.031      | 6.031      | 6.031      |   0.0 | 84.18
Bond    | 0.0029531  | 0.0029531  | 0.0029531  |   0.0 |  0.04
Neigh   | 0.42645    | 0.42645    | 0.42645    |   0.0 |  5.95
Comm    | 0.20871    | 0.20871    | 0.20871    |   0.0 |  2.91
Output  | 0.0096859  | 0.0096859  | 0.0096859  |   0.0 |  0.14
Modify  | 0.44856    | 0.44856    | 0.44856    |   0.0 |  6.26
Other   |            | 0.03673    |            |       |  0.51

Nlocal:             96 ave          96 max          96 min
Histogram: 1 0 0 0 0 0 0 0 0 0
Nghost:            512 ave         512 max         512 min
Histogram: 1 0 0 0 0 0 0 0 0 0
Neighs:              0 ave           0 max           0 min
Histogram: 1 0 0 0 0 0 0 0 0 0
FullNghs:         2846 ave        2846 max        2846 min
Histogram: 1 0 0 0 0 0 0 0 0 0

Total # of neighbors = 2846
Ave neighs/atom = 29.645833
Ave special neighs/atom = 0
Neighbor list builds = 3282
Dangerous builds = 0

fix npt1 all npt temp 4000 4000 0.1 iso 0 0 1
run 80000
Per MPI rank memory allocation (min/avg/max) = 8.549 | 8.549 | 8.549 Mbytes
   Step          Temp          E_pair         E_mol          TotEng         Press          Volume    
    160000   4407.6535     -563.00364      0             -508.87892      13814.103      1528.1611    
    161000   4231.6653     -565.02337      0             -513.05974      4157.1663      1525.8103    
    162000   3518.6952     -567.09782      0             -523.88925     -29084.761      1502.7424    
    163000   3655.8167     -570.44558      0             -525.55319     -28902.128      1449.4804    
    164000   4503.3668     -580.95958      0             -525.65953     -17645.938      1432.7722    
    165000   4081.5389     -565.27605      0             -515.15592     -4767.9194      1366.1638    
    166000   3996.8151     -580.19954      0             -531.11979      1534.716       1440.601     
    167000   4178.5521     -573.56861      0             -522.25718      5196.0067      1451.6432    
    168000   4366.9802     -576.49968      0             -522.87441     -23161.214      1428.1866    
    169000   4756.7689     -572.08949      0             -513.67773      21552.009      1407.2769    
    170000   4182.8538     -572.90077      0             -521.53653      1481.6536      1411.4755    
    171000   3894.5952     -576.33538      0             -528.51087      20256.052      1402.4628    
    172000   3794.2245     -578.22318      0             -531.63119      18176.383      1412.9437    
    173000   3541.1979     -579.00241      0             -535.51751      25599.511      1390.5118    
    174000   4117.9154     -579.41799      0             -528.85117      29789.596      1438.4792    
    175000   4137.9547     -580.51161      0             -529.69871      18045.19       1456.9151    
    176000   3645.924      -574.78202      0             -530.01111      7515.856       1513.204     
    177000   4568.103      -574.59229      0             -518.4973       42671.868      1513.2897    
    178000   3767.1543     -577.63622      0             -531.37664     -32159.229      1451.8508    
    179000   4356.4697     -570.97288      0             -517.47668      19253.662      1527.0031    
    180000   3575.9363     -571.32236      0             -527.41089     -19749.422      1511.6761    
    181000   3467.8551     -576.84085      0             -534.25658     -45495.456      1474.3433    
    182000   4124.1681     -569.4166       0             -518.77299     -22736.836      1456.8172    
    183000   4716.6044     -568.55182      0             -510.63327      667.26547      1431.1827    
    184000   4306.8919     -577.25438      0             -524.36698      3945.38        1409.3653    
    185000   4351.2261     -568.97267      0             -515.54086     -13319.376      1435.9441    
    186000   3962.3211     -574.48699      0             -525.83082      55597.912      1476.317     
    187000   3527.9202     -581.93652      0             -538.61467     -18837.583      1410.6615    
    188000   3991.4404     -575.86591      0             -526.85216     -17062.766      1415.3096    
    189000   3428.4969     -567.51188      0             -525.41092      610.04051      1462.9949    
    190000   4355.1732     -569.24517      0             -515.76489      2200.8907      1465.8616    
    191000   3844.9635     -567.76618      0             -520.55112      6492.9946      1465.232     
    192000   3995.7738     -576.70456      0             -527.6376       40949.24       1494.6037    
    193000   3209.1447     -578.30676      0             -538.89938     -27871.03       1465.8968    
    194000   4392.1887     -577.13434      0             -523.19952     -21274.964      1491.3559    
    195000   3931.964      -575.44169      0             -527.1583      -21740.517      1454.9451    
    196000   3748.4125     -573.10579      0             -527.07636     -22755.507      1455.5009    
    197000   4516.1799     -567.94679      0             -512.48939      1077.4679      1470.0693    
    198000   4194.3347     -579.40527      0             -527.90004      17179.597      1492.3966    
    199000   3376.3904     -569.67225      0             -528.21114     -15261.941      1527.1813    
    200000   4060.0449     -569.85082      0             -519.99463     -27856.818      1498.0751    
    201000   3941.488      -576.18343      0             -527.78309      15578.11       1472.2477    
    202000   3765.9162     -567.15078      0             -520.90641     -23274.301      1582.31      
    203000   3727.1083     -584.43884      0             -538.67101      11417.856      1508.5211    
    204000   4302.8938     -578.70376      0             -525.86545      4933.0687      1520.2521    
    205000   4565.8443     -574.47206      0             -518.4048      -20117.024      1476.1682    
    206000   4056.2083     -573.8555       0             -524.04642     -698.28955      1470.5481    
    207000   3537.3992     -570.62254      0             -527.18429      18158.789      1541.4947    
    208000   4099.5305     -576.59579      0             -526.25473     -38294.957      1585.1865    
    209000   3991.6548     -565.80037      0             -516.78399     -50872.956      1641.0625    
    210000   4233.14       -570.64081      0             -518.65906     -22009.335      1534.6787    
    211000   3740.8876     -572.26205      0             -526.32502     -15518.581      1535.8897    
    212000   3579.6153     -564.98845      0             -521.0318       18290.645      1578.2751    
    213000   4067.0541     -575.40518      0             -525.46292      36491.745      1530.8902    
    214000   3685.2365     -581.61486      0             -536.36121     -45726.125      1531.8747    
    215000   4363.7323     -570.78671      0             -517.20133      28707.34       1513.4601    
    216000   4193.5842     -581.9691       0             -530.47309      42860.961      1459.3236    
    217000   3368.3036     -573.31117      0             -531.94936     -6602.576       1516.9675    
    218000   3776.4545     -574.0282       0             -527.65442      4170.0503      1507.8945    
    219000   3378.5773     -571.73666      0             -530.2487      -30713.729      1508.91      
    220000   3834.2932     -578.56704      0             -531.48302      42123.296      1513.3972    
    221000   3830.1618     -579.93409      0             -532.9008       19729.063      1595.0247    
    222000   4565.0508     -575.69104      0             -519.63352     -4984.5401      1579.5487    
    223000   3827.2138     -576.16069      0             -529.1636      -48004.69       1625.724     
    224000   3447.8873     -584.28227      0             -541.9432       7892.5315      1558.4622    
    225000   4528.3903     -583.52809      0             -527.92076     -5374.3625      1576.131     
    226000   4746.173      -574.80055      0             -516.5189       12746.843      1555.7506    
    227000   4261.8026     -575.88005      0             -523.54633      8369.8842      1632.909     
    228000   4121.3207     -578.55821      0             -527.94957     -38582.424      1609.4784    
    229000   3477.1679     -583.43727      0             -540.73864      11123.214      1617.8607    
    230000   4974.2624     -577.07544      0             -515.99292     -11654.608      1616.8432    
    231000   3600.1981     -577.38026      0             -533.17086     -5120.2201      1621.9392    
    232000   3086.9606     -579.99289      0             -542.08589     -24086.665      1528.0355    
    233000   4272.8991     -581.60401      0             -529.13403      8273.521       1487.8197    
    234000   4545.3753     -567.72522      0             -511.90932     -29884.595      1519.325     
    235000   3683.1856     -573.79016      0             -528.5617      -30557.375      1566.3357    
    236000   3856.6943     -579.06777      0             -531.70867      14291.671      1556.2931    
    237000   3971.9413     -577.35097      0             -528.57667      7711.0168      1595.1805    
    238000   3577.1225     -576.39754      0             -532.4715      -13247.57       1568.2482    
    239000   3896.7769     -574.29162      0             -526.44031     -59829.878      1584.8906    
    240000   4382.7817     -570.85621      0             -517.0369       12770.798      1497.3949    
Loop time of 6.94045 on 1 procs for 80000 steps with 96 atoms

Performance: 995.901 ns/day, 0.024 hours/ns, 11526.633 timesteps/s, 1.107 Matom-step/s
99.4% CPU use with 1 MPI tasks x no OpenMP threads

MPI task timing breakdown:
Section |  min time  |  avg time  |  max time  |%varavg| %total
---------------------------------------------------------------
Pair    | 5.8556     | 5.8556     | 5.8556     |   0.0 | 84.37
Bond    | 0.0029536  | 0.0029536  | 0.0029536  |   0.0 |  0.04
Neigh   | 0.38733    | 0.38733    | 0.38733    |   0.0 |  5.58
Comm    | 0.20466    | 0.20466    | 0.20466    |   0.0 |  2.95
Output  | 0.0092512  | 0.0092512  | 0.0092512  |   0.0 |  0.13
Modify  | 0.44516    | 0.44516    | 0.44516    |   0.0 |  6.41
Other   |            | 0.03545    |            |       |  0.51

Nlocal:             96 ave          96 max          96 min
Histogram: 1 0 0 0 0 0 0 0 0 0
Nghost:            515 ave         515 max         515 min
Histogram: 1 0 0 0 0 0 0 0 0 0
Neighs:              0 ave           0 max           0 min
Histogram: 1 0 0 0 0 0 0 0 0 0
FullNghs:         2812 ave        2812 max        2812 min
Histogram: 1 0 0 0 0 0 0 0 0 0

Total # of neighbors = 2812
Ave neighs/atom = 29.291667
Ave special neighs/atom = 0
Neighbor list builds = 3054
Dangerous builds = 0

fix npt1 all npt temp 4000 3000 0.1 iso 0 0  1
run 80000
Per MPI rank memory allocation (min/avg/max) = 8.549 | 8.549 | 8.549 Mbytes
   Step          Temp          E_pair         E_mol          TotEng         Press          Volume    
    240000   4382.7817     -570.85621      0             -517.0369       12770.798      1497.3949    
    241000   3810.7714     -573.85501      0             -527.05983      19297.472      1509.8106    
    242000   3773.0472     -574.6646       0             -528.33266     -18961.251      1624.8623    
    243000   3600.4197     -576.89937      0             -532.68725     -28864.259      1580.6356    
    244000   3629.8794     -571.88613      0             -527.31225     -14032.57       1539.3651    
    245000   3816.4395     -581.69559      0             -534.8308      -7701.3767      1583.5122    
    246000   4074.0809     -576.87094      0             -526.84239     -31806.392      1563.4794    
    247000   3903.5305     -575.57165      0             -527.63742      23657.385      1599.6178    
    248000   3539.9536     -576.25065      0             -532.78103     -848.89568      1560.0727    
    249000   3602.9373     -566.0976       0             -521.85456      5916.4166      1579.6818    
    250000   3724.9909     -576.53653      0             -530.79471      28922.574      1552.9776    
    251000   4056.5345     -585.54857      0             -535.73549     -8910.3576      1497.7764    
    252000   4759.0383     -578.62709      0             -520.18746      24886.648      1474.371     
    253000   3690.6008     -578.14836      0             -532.82884      27026.86       1516.6268    
    254000   3496.068      -575.55926      0             -532.62855      820.78832      1547.1277    
    255000   4124.3408     -578.6122       0             -527.96647     -18109.729      1447.4552    
    256000   4336.8142     -584.25645      0             -531.00161     -13472.82       1577.4522    
    257000   2987.9922     -588.42451      0             -551.73282     -41480.117      1515.9938    
    258000   4372.1115     -578.93578      0             -525.2475      -34179.285      1582.2732    
    259000   3752.7798     -579.18414      0             -533.10108      13916.426      1536.1866    
    260000   3759.7992     -584.8334       0             -538.66414     -15521.734      1517.2925    
    261000   3681.6865     -581.19196      0             -535.9819      -28887.92       1513.688     
    262000   3623.1832     -581.52661      0             -537.03495      26565.455      1480.4042    
    263000   4027.5626     -581.06709      0             -531.60978     -3231.6689      1477.1872    
    264000   3713.9825     -581.8192       0             -536.21255      17131.974      1485.8633    
    265000   3686.4007     -582.15531      0             -536.88737     -4950.1017      1541.9848    
    266000   3725.6922     -582.01557      0             -536.26513      12819.338      1522.0156    
    267000   3663.1651     -582.38078      0             -537.39816     -22002.057      1527.596     
    268000   4138.2988     -578.17899      0             -527.36186     -17356.988      1495.9797    
    269000   3517.1355     -581.26531      0             -538.0759      -37417.566      1536.3059    
    270000   3089.8344     -579.02912      0             -541.08684      43244.934      1462.2203    
    271000   3667.4463     -584.26925      0             -539.23406      12371.661      1444.2651    
    272000   3889.4292     -580.15554      0             -532.39446     -8189.7974      1461.58      
    273000   3701.1712     -578.5929       0             -533.14357     -8665.0228      1426.5228    
    274000   3495.201      -581.00454      0             -538.08447     -43877.909      1426.3747    
    275000   3521.2371     -579.28253      0             -536.04275      52209.151      1416.2998    
    276000   4129.956      -585.77798      0             -535.0633       23306.004      1445.9067    
    277000   3035.3451     -582.45677      0             -545.1836       22160.226      1497.7809    
    278000   3653.4837     -582.01572      0             -537.15198      19925.056      1516.7399    
    279000   3466.9903     -585.92245      0             -543.3488      -12535.072      1483.9099    
    280000   3415.2916     -574.44033      0             -532.50153     -28219.112      1509.3312    
    281000   3002.9425     -583.37732      0             -546.50205      30965.279      1499.0932    
    282000   3693.0811     -582.93477      0             -537.58479     -27103.997      1484.3039    
    283000   3565.8351     -585.12371      0             -541.33627      3081.2728      1476.3941    
    284000   3345.4679     -588.62915      0             -547.54776      38297.192      1475.8121    
    285000   3243.4282     -588.44022      0             -548.61185     -10888.67       1501.95      
    286000   3402.0253     -575.88086      0             -534.10497      13631.001      1500.9516    
    287000   3384.254      -587.15532      0             -545.59765     -11587.269      1469.5953    
    288000   3271.6755     -589.45774      0             -549.28251      34545.318      1481.7275    
    289000   3949.6044     -581.68689      0             -533.18688      30567.474      1481.0235    
    290000   3092.0727     -584.54657      0             -546.5768      -1738.2975      1474.2995    
    291000   2788.5345     -584.52831      0             -550.28591     -33489.015      1512.8639    
    292000   3413.7066     -591.53882      0             -549.61948      10978.698      1501.8551    
    293000   3604.2496     -585.67294      0             -541.41379      1098.5032      1499.9653    
    294000   3304.974      -589.52123      0             -548.93709     -25871.446      1556.6131    
    295000   3160.3533     -590.12122      0             -551.31298     -21975.07       1559.699     
    296000   3446.384      -582.51111      0             -540.19051     -16114.428      1599.9565    
    297000   3068.7766     -584.65187      0             -546.96817     -32094.428      1594.8272    
    298000   3367.7232     -591.11818      0             -549.7635      -12427.017      1546.9041    
    299000   3171.8394     -578.26614      0             -539.31686      1852.8798      1543.4349    
    300000   2920.1642     -588.18324      0             -552.32445     -6224.0601      1476.9436    
    301000   3234.4572     -585.72377      0             -546.00556     -1077.2389      1492.7178    
    302000   3399.4731     -584.28437      0             -542.53981     -22168.361      1506.9071    
    303000   3293.1494     -588.43256      0             -547.99363     -50223.443      1459.1549    
    304000   3393.2572     -585.33307      0             -543.66485     -51704.553      1444.5377    
    305000   3262.8348     -588.41631      0             -548.34963      50071.668      1366.741     
    306000   3222.7953     -584.90199      0             -545.32699     -21835.01       1420.9502    
    307000   3186.4303     -593.93205      0             -554.8036       48110.2        1416.2078    
    308000   3629.6626     -592.89099      0             -548.31977      24192.999      1404.8367    
    309000   3157.7167     -592.49037      0             -553.71451      54518.968      1443.3447    
    310000   3449.6048     -591.60016      0             -549.24         1593.8182      1457.1666    
    311000   2739.0404     -594.20592      0             -560.57129     -28521.02       1490.8747    
    312000   3153.0487     -587.82073      0             -549.1022      -15711.831      1496.1892    
    313000   2963.0847     -592.13066      0             -555.74483      3404.7394      1502.2162    
    314000   3251.5784     -586.96537      0             -547.03692      14036.084      1492.0902    
    315000   3137.0713     -594.03064      0             -555.50831     -32547.74       1516.6609    
    316000   3166.9227     -591.54087      0             -552.65197      1410.3597      1527.889     
    317000   3363.1878     -591.60205      0             -550.30307     -672.11964      1487.1851    
    318000   2641.7689     -594.34572      0             -561.90556     -12051.169      1499.3517    
    319000   3440.146      -593.40124      0             -551.15723      22031.21       1456.945     
    320000   3122.0867     -596.96615      0             -558.62782      46128.326      1458.882     
Loop time of 6.51847 on 1 procs for 80000 steps with 96 atoms

Performance: 1060.372 ns/day, 0.023 hours/ns, 12272.827 timesteps/s, 1.178 Matom-step/s
99.3% CPU use with 1 MPI tasks x no OpenMP threads

MPI task timing breakdown:
Section |  min time  |  avg time  |  max time  |%varavg| %total
---------------------------------------------------------------
Pair    | 5.481      | 5.481      | 5.481      |   0.0 | 84.08
Bond    | 0.0028093  | 0.0028093  | 0.0028093  |   0.0 |  0.04
Neigh   | 0.35773    | 0.35773    | 0.35773    |   0.0 |  5.49
Comm    | 0.19844    | 0.19844    | 0.19844    |   0.0 |  3.04
Output  | 0.0097589  | 0.0097589  | 0.0097589  |   0.0 |  0.15
Modify  | 0.43519    | 0.43519    | 0.43519    |   0.0 |  6.68
Other   |            | 0.03357    |            |       |  0.51

Nlocal:             96 ave          96 max          96 min
Histogram: 1 0 0 0 0 0 0 0 0 0
Nghost:            509 ave         509 max         509 min
Histogram: 1 0 0 0 0 0 0 0 0 0
Neighs:              0 ave           0 max           0 min
Histogram: 1 0 0 0 0 0 0 0 0 0
FullNghs:         2920 ave        2920 max        2920 min
Histogram: 1 0 0 0 0 0 0 0 0 0

Total # of neighbors = 2920
Ave neighs/atom = 30.416667
Ave special neighs/atom = 0
Neighbor list builds = 2836
Dangerous builds = 0

fix npt1 all npt temp 3000 3000 0.1 iso 0 0 1
run 80000
Per MPI rank memory allocation (min/avg/max) = 8.549 | 8.549 | 8.549 Mbytes
   Step          Temp          E_pair         E_mol          TotEng         Press          Volume    
    320000   3122.0867     -596.96615      0             -558.62782      46128.326      1458.882     
    321000   2711.9921     -594.01439      0             -560.71191      8856.5603      1460.4897    
    322000   3067.3842     -590.41266      0             -552.74606      35803.928      1453.5677    
    323000   3229.2087     -594.32055      0             -554.6668      -3354.811       1482.9721    
    324000   3044.1386     -588.63181      0             -551.25066      4201.1509      1507.3326    
    325000   2953.2428     -586.23118      0             -549.9662      -39633.733      1512.6901    
    326000   3129.0868     -596.26634      0             -557.84205     -332.97285      1466.3255    
    327000   2775.6328     -581.74773      0             -547.66375      3936.5718      1435.5272    
    328000   2844.3481     -591.28348      0             -556.3557      -19940.274      1478.8616    
    329000   2625.999      -592.31645      0             -560.06993     -22977.214      1515.8873    
    330000   3148.3057     -589.65806      0             -550.99776     -26293.231      1539.8848    
    331000   3076.4874     -596.68917      0             -558.91079     -13363.898      1504.3993    
    332000   3496.328      -589.83601      0             -546.90211      15421.664      1519.2648    
    333000   2993.5748     -591.49034      0             -554.73009      47686.151      1414.5731    
    334000   2631.5927     -588.20905      0             -555.89385     -34875.461      1450.2753    
    335000   3082.477      -597.57859      0             -559.72665      27761.306      1430.7291    
    336000   2839.3239     -594.9298       0             -560.06371     -2995.7221      1457.3823    
    337000   3157.039      -590.11447      0             -551.34694      10450.27       1530.9911    
    338000   2705.9788     -587.15164      0             -553.92299     -35632.156      1498.4734    
    339000   2877.7526     -594.52355      0             -559.18557      8305.0037      1443.5261    
    340000   2569.5094     -590.91704      0             -559.3642      -1713.6097      1456.0381    
    341000   3525.1115     -596.19299      0             -552.90563      4967.4678      1446.3335    
    342000   3265.5388     -597.05608      0             -556.9562       5769.4687      1498.6746    
    343000   3140.3425     -591.41448      0             -552.85197      56192.464      1446.5087    
    344000   2961.9102     -590.5683       0             -554.19689      1896.7421      1483.2671    
    345000   3193.2545     -592.18037      0             -552.96812     -19965.975      1482.4755    
    346000   2777.469      -594.12265      0             -560.01612     -3849.2878      1514.6852    
    347000   3441.015      -592.174        0             -549.91932      25078.313      1500.8525    
    348000   3086.3345     -597.25017      0             -559.35086      19341.379      1458.0742    
    349000   3172.9271     -595.19715      0             -556.23451      34440.369      1422.7994    
    350000   3005.5127     -585.49013      0             -548.5833      -18832.68       1452.1572    
    351000   3037.1806     -589.29781      0             -552.0021      -22883.52       1458.8442    
    352000   2737.0977     -584.76685      0             -551.15607      81458.067      1365.8521    
    353000   3215.4019     -585.17669      0             -545.69247      20124.88       1440.7873    
    354000   3013.7891     -589.31482      0             -552.30635      58757.507      1433.6415    
    355000   3187.1422     -586.19391      0             -547.05671     -29823.023      1487.1431    
    356000   3190.891      -585.30398      0             -546.12075     -46162.008      1570.8359    
    357000   2868.1987     -577.08529      0             -541.86463     -39521.327      1539.6263    
    358000   2805.6072     -582.96764      0             -548.51559      6821.7653      1474.8859    
    359000   3369.6948     -587.42604      0             -546.04715      40108.472      1458.1836    
    360000   2948.5455     -588.90707      0             -552.69977     -36862.263      1526.7687    
    361000   2956.9496     -593.537        0             -557.2265      -15807.557      1489.7224    
    362000   2776.5925     -589.03933      0             -554.94357     -3666.7485      1514.572     
    363000   2678.3211     -595.67194      0             -562.78292     -10960.134      1509.6454    
    364000   3070.1373     -592.67823      0             -554.97782      14931.721      1508.597     
    365000   3217.3051     -592.88003      0             -553.37244      13621.524      1507.0451    
    366000   3034.8228     -585.68778      0             -548.42103     -7119.4026      1531.2963    
    367000   3405.2469     -590.44436      0             -548.6289      -6513.7912      1485.4821    
    368000   3089.0846     -594.97216      0             -557.03909      2652.1535      1430.0064    
    369000   2898.3596     -596.11232      0             -560.52129      5181.2978      1471.6341    
    370000   3033.814      -594.21422      0             -556.95985     -25839.325      1504.4862    
    371000   2707.7868     -586.13155      0             -552.88071     -10729.471      1493.4084    
    372000   2726.6035     -590.25422      0             -556.77231     -192.57992      1467.981     
    373000   2653.4757     -597.14537      0             -564.56145      646.87599      1445.3486    
    374000   2854.9234     -586.48143      0             -551.42379      2838.7649      1442.3403    
    375000   3166.3877     -592.94683      0             -554.0645       39775.884      1516.1012    
    376000   3145.9697     -585.49008      0             -546.85847     -26282.808      1499.5765    
    377000   2741.9246     -588.54867      0             -554.87862     -24671.361      1485.8805    
    378000   3038.4782     -596.04359      0             -558.73195     -14298.855      1438.5034    
    379000   2666.9278     -595.03684      0             -562.28773     -15841.754      1454.6187    
    380000   2617.6862     -585.00516      0             -552.86072     -27868.801      1458.0109    
    381000   3271.0509     -585.75606      0             -545.58849     -4213.6011      1487.883     
    382000   2689.0726     -590.16808      0             -557.14703     -15651.897      1450.1536    
    383000   2843.9793     -592.36546      0             -557.44221      30224.113      1418.1124    
    384000   2886.099      -591.15498      0             -555.71451     -15773.132      1403.178     
    385000   2754.3389     -596.09275      0             -562.27026     -13755.52       1408.2528    
    386000   3102.3215     -588.91449      0             -550.81887     -8636.521       1392.4438    
    387000   2799.098      -592.50556      0             -558.13344     -15188.754      1459.4526    
    388000   3438.0657     -589.23878      0             -547.02032      11612.694      1438.7939    
    389000   2713.7877     -590.55529      0             -557.23076     -8925.5706      1489.0764    
    390000   2961.0522     -584.18568      0             -547.82481      25205.247      1431.695     
    391000   3245.3022     -590.88424      0             -551.03286      6916.5863      1384.0996    
    392000   3227.7479     -587.68162      0             -548.0458       74086.616      1377.0584    
    393000   2748.1208     -592.88965      0             -559.14352     -32780.965      1452.6696    
    394000   2813.2963     -592.86125      0             -558.31478     -1252.1705      1452.4901    
    395000   2738.6749     -584.08682      0             -550.45668     -18981.623      1469.1015    
    396000   2768.2702     -589.09679      0             -555.10322     -33009.268      1504.9832    
    397000   2999.3944     -588.61669      0             -551.78498     -48785.043      1437.3594    
    398000   2954.3526     -586.70813      0             -550.42953     -10132.427      1456.2151    
    399000   3060.3763     -593.19092      0             -555.61037      670.56865      1473.9464    
    400000   3284.2901     -590.60745      0             -550.27731      20683.973      1401.6473    
Loop time of 6.31332 on 1 procs for 80000 steps with 96 atoms

Performance: 1094.828 ns/day, 0.022 hours/ns, 12671.618 timesteps/s, 1.216 Matom-step/s
99.3% CPU use with 1 MPI tasks x no OpenMP threads

MPI task timing breakdown:
Section |  min time  |  avg time  |  max time  |%varavg| %total
---------------------------------------------------------------
Pair    | 5.309      | 5.309      | 5.309      |   0.0 | 84.09
Bond    | 0.002972   | 0.002972   | 0.002972   |   0.0 |  0.05
Neigh   | 0.32703    | 0.32703    | 0.32703    |   0.0 |  5.18
Comm    | 0.19265    | 0.19265    | 0.19265    |   0.0 |  3.05
Output  | 0.0097159  | 0.0097159  | 0.0097159  |   0.0 |  0.15
Modify  | 0.43855    | 0.43855    | 0.43855    |   0.0 |  6.95
Other   |            | 0.03339    |            |       |  0.53

Nlocal:             96 ave          96 max          96 min
Histogram: 1 0 0 0 0 0 0 0 0 0
Nghost:            497 ave         497 max         497 min
Histogram: 1 0 0 0 0 0 0 0 0 0
Neighs:              0 ave           0 max           0 min
Histogram: 1 0 0 0 0 0 0 0 0 0
FullNghs:         2980 ave        2980 max        2980 min
Histogram: 1 0 0 0 0 0 0 0 0 0

Total # of neighbors = 2980
Ave neighs/atom = 31.041667
Ave special neighs/atom = 0
Neighbor list builds = 2558
Dangerous builds = 0

fix npt1 all npt temp 3000 2000 0.1 iso 0 0 1
run 80000
Per MPI rank memory allocation (min/avg/max) = 8.549 | 8.549 | 8.549 Mbytes
   Step          Temp          E_pair         E_mol          TotEng         Press          Volume    
    400000   3284.2901     -590.60745      0             -550.27731      20683.973      1401.6473    
    401000   2722.111      -593.64621      0             -560.21947      10915.43       1377.488     
    402000   3108.718      -592.80351      0             -554.62934     -3255.6987      1410.9953    
    403000   2925.2058     -591.59701      0             -555.67632      8413.1081      1418.1864    
    404000   3150.1607     -589.00524      0             -550.32217      7497.3776      1402.8938    
    405000   2996.3001     -593.23789      0             -556.44419      21962.288      1385.6298    
    406000   3027.8296     -587.88031      0             -550.69943     -9256.2499      1426.1529    
    407000   3119.5741     -596.93674      0             -558.62927     -1917.4929      1467.9765    
    408000   2655.1154     -583.48249      0             -550.87844     -11446.043      1468.361     
    409000   2875.2606     -597.62076      0             -562.31339     -2145.8543      1483.1703    
    410000   2831.7701     -592.46337      0             -557.69004      5028.0994      1487.6317    
    411000   2962.792      -595.53703      0             -559.15479     -755.40612      1476.5326    
    412000   2923.3565     -594.10305      0             -558.20507      18025.666      1443.4026    
    413000   2654.7326     -592.81019      0             -560.21083     -2227.3114      1446.4871    
    414000   3390.5414     -598.69106      0             -557.05618      34309.209      1437.7276    
    415000   2812.0909     -592.58306      0             -558.05139      55229.045      1417.2082    
    416000   3052.5209     -592.20434      0             -554.72026      1188.525       1403.7239    
    417000   3053.5188     -595.80783      0             -558.31149     -5164.3431      1453.0246    
    418000   2792.0808     -592.76418      0             -558.47823     -1573.4282      1449.7441    
    419000   2830.5764     -591.98591      0             -557.22724     -16969.527      1522.9523    
    420000   2902.5891     -591.09446      0             -555.45149      5732.1056      1480.805     
    421000   2391.9219     -599.73064      0             -570.35852      11367.573      1454.8867    
    422000   2400.0994     -591.20223      0             -561.72969      10633.293      1439.8051    
    423000   2706.9404     -591.1826       0             -557.94215      38182.912      1361.0848    
    424000   2425.7869     -598.50399      0             -568.71602      16521.559      1424.8368    
    425000   3022.4995     -595.34071      0             -558.22529     -1340.9179      1462.4377    
    426000   2231.8337     -597.60169      0             -570.19541      33013.752      1448.7835    
    427000   2814.2465     -596.81462      0             -562.25648     -8534.1006      1465.0779    
    428000   2457.7605     -596.13134      0             -565.95075     -20745.013      1502.8685    
    429000   2926.7622     -591.67644      0             -555.73664      26425.841      1460.798     
    430000   2414.4683     -593.64356      0             -563.99458     -7818.1095      1524.8227    
    431000   3081.5172     -593.2546       0             -555.41445      27275.981      1516.2511    
    432000   2223.9378     -594.47539      0             -567.16607     -2882.2539      1500.3551    
    433000   2786.9069     -596.69016      0             -562.46774      6071.9777      1468.7779    
    434000   2796.9794     -593.70072      0             -559.35461     -12131.439      1468.4367    
    435000   2724.5714     -597.09519      0             -563.63823     -15816.321      1472.2168    
    436000   2383.0239     -598.52748      0             -569.26463     -18217.157      1517.3978    
    437000   2388.6774     -603.02643      0             -573.69416     -21637.066      1487.661     
    438000   2596.9792     -598.58984      0             -566.69968     -15590.913      1512.7628    
    439000   2607.2249     -593.37171      0             -561.35574     -38733.52       1537.8106    
    440000   2610.3116     -600.14052      0             -568.08664     -44590.615      1508.6472    
    441000   2692.7728     -598.7541       0             -565.68762      15056          1464.8388    
    442000   2272.9036     -599.11013      0             -571.19952     -16381.515      1505.2643    
    443000   2930.5425     -597.26433      0             -561.27811      11855.957      1471.4346    
    444000   2362.1873     -599.15046      0             -570.14348      2205.2089      1472.5965    
    445000   2360.7823     -593.58643      0             -564.5967       9757.5169      1428.22      
    446000   2643.3156     -601.65208      0             -569.19292     -26167.361      1470.1235    
    447000   2626.2734     -599.02906      0             -566.77917      3140.0695      1373.9131    
    448000   2116.0977     -605.05233      0             -579.06725     -21893.175      1409.3269    
    449000   2517.4627     -599.51034      0             -568.59662     -19197.283      1441.1967    
    450000   2500.7758     -599.56428      0             -568.85547      42367.948      1418.4528    
    451000   2274.9687     -602.9846       0             -575.04864      16958.378      1373.6035    
    452000   2123.2446     -600.91979      0             -574.84695     -6963.6086      1428.5876    
    453000   2374.4205     -599.29408      0             -570.13688      36402.056      1451.7183    
    454000   2085.3694     -603.70261      0             -578.09487     -4321.3853      1488.6316    
    455000   2528.3351     -600.86796      0             -569.82073      9620.3337      1469.8469    
    456000   2596.8309     -606.2825       0             -574.39416     -1539.7006      1469.3318    
    457000   1925.347      -599.11286      0             -575.47015     -22052.258      1459.6279    
    458000   2457.322      -602.56769      0             -572.39248     -33789.446      1449.1734    
    459000   2024.2146     -605.06971      0             -580.21293     -28007.877      1449.3901    
    460000   2299.2969     -600.39545      0             -572.16074      11170.213      1458.9309    
    461000   2592.4764     -599.6705       0             -567.83563     -2007.2211      1438.8363    
    462000   2218.3574     -602.74701      0             -575.50621      774.47072      1476.8992    
    463000   1714.605      -606.66491      0             -585.61005     -27223.722      1456.8486    
    464000   2265.123      -601.44208      0             -573.62702      35817.541      1422.2612    
    465000   2005.24       -602.20091      0             -577.57713      22200.199      1405.797     
    466000   2281.9768     -599.34497      0             -571.32295     -13517.126      1389.5676    
    467000   2193.3937     -605.09874      0             -578.16449      2662.0774      1405.8902    
    468000   2159.4324     -607.58355      0             -581.06634     -11895.247      1432.1863    
    469000   2181.6627     -604.05419      0             -577.26399      6625.3476      1423.6355    
    470000   2059.2033     -602.57527      0             -577.28885      346.16559      1435.4574    
    471000   2078.1059     -603.90264      0             -578.38409     -2662.8733      1444.0356    
    472000   2122.4862     -601.98697      0             -575.92345     -34181.985      1449.0986    
    473000   1941.6314     -607.68556      0             -583.84289     -23944.433      1448.3793    
    474000   2096.1693     -602.61052      0             -576.87016     -15998.668      1447.7508    
    475000   2216.5921     -603.3759       0             -576.15678     -12501.169      1442.7022    
    476000   1720.9181     -606.51698      0             -585.3846       1708.4141      1436.4781    
    477000   2176.0573     -603.79868      0             -577.07732     -3226.0935      1425.3153    
    478000   1803.463      -606.8044       0             -584.65839      4543.7979      1437.9898    
    479000   2127.1976     -603.30597      0             -577.18459     -16441.233      1399.2441    
    480000   1972.8688     -604.71758      0             -580.49132      39427.295      1377.0012    
Loop time of 6.21443 on 1 procs for 80000 steps with 96 atoms

Performance: 1112.250 ns/day, 0.022 hours/ns, 12873.258 timesteps/s, 1.236 Matom-step/s
99.1% CPU use with 1 MPI tasks x no OpenMP threads

MPI task timing breakdown:
Section |  min time  |  avg time  |  max time  |%varavg| %total
---------------------------------------------------------------
Pair    | 5.2536     | 5.2536     | 5.2536     |   0.0 | 84.54
Bond    | 0.0028471  | 0.0028471  | 0.0028471  |   0.0 |  0.05
Neigh   | 0.28424    | 0.28424    | 0.28424    |   0.0 |  4.57
Comm    | 0.18797    | 0.18797    | 0.18797    |   0.0 |  3.02
Output  | 0.01389    | 0.01389    | 0.01389    |   0.0 |  0.22
Modify  | 0.43939    | 0.43939    | 0.43939    |   0.0 |  7.07
Other   |            | 0.0325     |            |       |  0.52

Nlocal:             96 ave          96 max          96 min
Histogram: 1 0 0 0 0 0 0 0 0 0
Nghost:            498 ave         498 max         498 min
Histogram: 1 0 0 0 0 0 0 0 0 0
Neighs:              0 ave           0 max           0 min
Histogram: 1 0 0 0 0 0 0 0 0 0
FullNghs:         3024 ave        3024 max        3024 min
Histogram: 1 0 0 0 0 0 0 0 0 0

Total # of neighbors = 3024
Ave neighs/atom = 31.5
Ave special neighs/atom = 0
Neighbor list builds = 2234
Dangerous builds = 0

fix npt1 all npt temp 2000 2000 0.1 iso 0 0 1
run 80000
Per MPI rank memory allocation (min/avg/max) = 8.549 | 8.549 | 8.549 Mbytes
   Step          Temp          E_pair         E_mol          TotEng         Press          Volume    
    480000   1972.8688     -604.71758      0             -580.49132      39427.295      1377.0012    
    481000   1996.8231     -604.43818      0             -579.91776      14568.342      1438.4807    
    482000   1988.9725     -609.57151      0             -585.1475       2727.8876      1453.843     
    483000   2052.8819     -604.12495      0             -578.91615     -9972.874       1418.9434    
    484000   1761.6189     -605.48811      0             -583.85594     -15170.816      1466.2241    
    485000   2190.8765     -607.97435      0             -581.07102      18352.719      1382.5597    
    486000   1998.2319     -606.6927       0             -582.15499      17733.805      1363.209     
    487000   2098.7047     -608.25929      0             -582.4878      -12695.179      1436.6931    
    488000   1946.4865     -606.04538      0             -582.14309     -8806.3081      1397.2741    
    489000   1644.8547     -609.52354      0             -589.32519      4304.8033      1377.3872    
    490000   2224.3721     -607.80795      0             -580.4933      -15551.085      1436.5558    
    491000   1843.6215     -605.69369      0             -583.05454     -18424.153      1463.8505    
    492000   2032.7282     -599.5033       0             -574.54198      23785.9        1356.2931    
    493000   2113.9372     -603.46831      0             -577.50977      14801.789      1415.2919    
    494000   1940.2641     -604.43432      0             -580.60843      11556.954      1411.1348    
    495000   2328.6395     -604.24919      0             -575.65416      3801.2968      1455.5032    
    496000   1843.4483     -602.98586      0             -580.34885     -3382.5621      1427.458     
    497000   1789.211      -606.58247      0             -584.61147      6366.6011      1416.3139    
    498000   2223.4166     -607.72269      0             -580.41977      15242.124      1365.0059    
    499000   1727.0282     -607.08015      0             -585.87273      23482.519      1414.7655    
    500000   1668.4818     -601.63618      0             -581.1477      -21613.65       1442.6601    
    501000   1822.3729     -605.89882      0             -583.5206       10043.418      1422.4478    
    502000   2011.0383     -603.82695      0             -579.13198     -4279.8154      1460.1489    
    503000   1986.2948     -601.94882      0             -577.55769     -1345.757       1422.4877    
    504000   1840.7998     -607.47368      0             -584.86919     -7674.5759      1411.3976    
    505000   2087.3363     -602.67491      0             -577.04301      15519.165      1410.5141    
    506000   1894.6166     -602.92185      0             -579.6565       3694.6618      1419.4794    
    507000   1899.6033     -608.85598      0             -585.5294      -2743.3441      1419.3132    
    508000   1992.3271     -605.07062      0             -580.60542      8617.9287      1407.0717    
    509000   1914.5297     -606.21766      0             -582.70778     -37516.121      1470.5286    
    510000   2075.0979     -602.69339      0             -577.21178     -6568.8989      1437.8361    
    511000   2222.9064     -605.46045      0             -578.16379      24934.088      1380.9565    
    512000   1866.1506     -606.2481       0             -583.3323       4762.7525      1457.8848    
    513000   2000.6091     -602.45746      0             -577.89055      30299.306      1426.1927    
    514000   2009.8175     -605.45235      0             -580.77237      31190.126      1390.684     
    515000   1764.8016     -605.31473      0             -583.64348     -10819.412      1433.7574    
    516000   2301.7154     -602.10145      0             -573.83705     -10572.121      1486.4835    
    517000   2163.7531     -607.85865      0             -581.28838     -7024.9102      1420.1825    
    518000   2090.8649     -605.98672      0             -580.3115       30630.988      1414.8817    
    519000   2380.8353     -606.6748       0             -577.43883     -5766.0943      1448.8516    
    520000   2290.5665     -607.36059      0             -579.23309      13601.087      1390.8581    
    521000   2087.2647     -602.06818      0             -576.43716     -18768.007      1409.9538    
    522000   1803.3358     -604.87231      0             -582.72787     -7373.3141      1421.524     
    523000   2026.3676     -603.21825      0             -578.33504      6062.0529      1385.1316    
    524000   1909.3034     -607.26279      0             -583.81709     -6043.2315      1453.5301    
    525000   1759.5149     -603.81121      0             -582.20488      15695.046      1439.9029    
    526000   1847.504      -605.78248      0             -583.09566     -24544.624      1419.0774    
    527000   2183.4182     -606.05556      0             -579.24381      7844.0039      1387.9698    
    528000   1924.3583     -610.33091      0             -586.70034     -16499.254      1429.623     
    529000   2189.9677     -608.0976       0             -581.20542      5285.65        1477.4947    
    530000   2038.3158     -601.95554      0             -576.92561      6840.3121      1429.6386    
    531000   2024.8665     -606.81611      0             -581.95133      29178.739      1416.7652    
    532000   2061.6198     -604.74975      0             -579.43364     -19692.366      1479.0856    
    533000   1566.903      -605.37293      0             -586.13181     -3854.1451      1456.8463    
    534000   2189.4768     -606.83725      0             -579.9511       31552.215      1393.836     
    535000   2279.6555     -605.7151       0             -577.72158     -7056.8653      1431.5061    
    536000   2128.2177     -605.91769      0             -579.78379      1949.7351      1466.4655    
    537000   2232.1001     -604.2676       0             -576.85805      3135.4377      1468.0798    
    538000   1932.5705     -604.23404      0             -580.50263      14825.724      1417.4936    
    539000   1558.4089     -603.14076      0             -584.00394     -17377.792      1420.0843    
    540000   2222.4733     -603.89451      0             -576.60317     -35725.166      1455.6071    
    541000   1986.8996     -604.28127      0             -579.88271     -6697.521       1480.6751    
    542000   2029.7713     -608.5489       0             -583.62389      9705.0237      1445.5179    
    543000   2156.3417     -604.24918      0             -577.76992     -1352.2804      1458.2086    
    544000   1989.4102     -604.94356      0             -580.51417      28064.26       1423.8419    
    545000   1837.7239     -609.0843       0             -586.51758     -12174.142      1445.3398    
    546000   2017.5604     -607.74949      0             -582.97443     -10835.375      1473.1983    
    547000   2265.4681     -605.24511      0             -577.42581      16706.245      1456.1158    
    548000   1645.8478     -605.96417      0             -585.75363      3493.0545      1448.3552    
    549000   1856.7804     -602.88624      0             -580.08551      4559.6786      1462.0159    
    550000   1827.1949     -603.84174      0             -581.40431     -22456.303      1410.3929    
    551000   1849.3135     -604.66838      0             -581.95934      14091.502      1397.5563    
    552000   1967.1291     -599.51036      0             -575.35458      17530.896      1420.6622    
    553000   2268.9228     -606.57538      0             -578.71365      13143.466      1400.878     
    554000   1922.5922     -603.39903      0             -579.79015      5200.0956      1429.9861    
    555000   1822.4977     -606.86463      0             -584.48488     -14787.614      1449.5312    
    556000   1985.3606     -604.55836      0             -580.1787       15483.087      1445.1433    
    557000   2167.8925     -607.18436      0             -580.56326      1635.1772      1430.6541    
    558000   2099.71       -606.34663      0             -580.5628       18335.799      1415.3996    
    559000   2280.0012     -603.345        0             -575.34724      4450.9257      1459.8701    
    560000   1987.2569     -604.88948      0             -580.48653     -24239.139      1514.1985    
Loop time of 6.1531 on 1 procs for 80000 steps with 96 atoms

Performance: 1123.337 ns/day, 0.021 hours/ns, 13001.585 timesteps/s, 1.248 Matom-step/s
99.0% CPU use with 1 MPI tasks x no OpenMP threads

MPI task timing breakdown:
Section |  min time  |  avg time  |  max time  |%varavg| %total
---------------------------------------------------------------
Pair    | 5.2446     | 5.2446     | 5.2446     |   0.0 | 85.23
Bond    | 0.0027772  | 0.0027772  | 0.0027772  |   0.0 |  0.05
Neigh   | 0.23815    | 0.23815    | 0.23815    |   0.0 |  3.87
Comm    | 0.18374    | 0.18374    | 0.18374    |   0.0 |  2.99
Output  | 0.0090252  | 0.0090252  | 0.0090252  |   0.0 |  0.15
Modify  | 0.44438    | 0.44438    | 0.44438    |   0.0 |  7.22
Other   |            | 0.03047    |            |       |  0.50

Nlocal:             96 ave          96 max          96 min
Histogram: 1 0 0 0 0 0 0 0 0 0
Nghost:            460 ave         460 max         460 min
Histogram: 1 0 0 0 0 0 0 0 0 0
Neighs:              0 ave           0 max           0 min
Histogram: 1 0 0 0 0 0 0 0 0 0
FullNghs:         2788 ave        2788 max        2788 min
Histogram: 1 0 0 0 0 0 0 0 0 0

Total # of neighbors = 2788
Ave neighs/atom = 29.041667
Ave special neighs/atom = 0
Neighbor list builds = 1876
Dangerous builds = 0

fix npt1 all npt temp 2000 1000 0.1 iso 0 0 1
run 80000
Per MPI rank memory allocation (min/avg/max) = 8.549 | 8.549 | 8.549 Mbytes
   Step          Temp          E_pair         E_mol          TotEng         Press          Volume    
    560000   1987.2569     -604.88948      0             -580.48653     -24239.139      1514.1985    
    561000   2183.1547     -607.02527      0             -580.21675      10349.12       1446.1484    
    562000   1956.592      -606.87186      0             -582.84547     -5266.082       1431.8097    
    563000   2122.9344     -606.51058      0             -580.44155      16831.401      1465.7298    
    564000   2098.107      -605.98593      0             -580.22177      10702.119      1424.683     
    565000   1950.8962     -608.35977      0             -584.40333      16810.638      1422.0878    
    566000   1979.0586     -609.34096      0             -585.03868      13218.423      1475.465     
    567000   2176.546      -605.75363      0             -579.02627     -17378.245      1472.5001    
    568000   1833.3831     -606.38899      0             -583.87557     -7565.0384      1440.0078    
    569000   1999.7519     -606.79264      0             -582.23626      1086.9868      1413.246     
    570000   1675.8087     -608.747        0             -588.16855      12788.554      1436.2693    
    571000   2067.1673     -606.97182      0             -581.58759     -7347.0077      1533.1286    
    572000   1737.4448     -606.78063      0             -585.4453       7603.1138      1482.7053    
    573000   1785.2463     -607.18707      0             -585.26475     -9374.159       1404.221     
    574000   2262.8001     -608.6256       0             -580.83907      8249.2765      1420.3816    
    575000   1598.1554     -606.20273      0             -586.57784     -6103.1836      1426.1372    
    576000   1842.5703     -607.42451      0             -584.79827     -18584.361      1446.6701    
    577000   1549.3075     -609.30511      0             -590.28005     -7479.6934      1459.0816    
    578000   1900.3048     -608.1818       0             -584.8466       10847.368      1447.0553    
    579000   1993.3236     -612.19746      0             -587.72002      2386.1189      1442.6199    
    580000   1574.2409     -607.47866      0             -588.14743     -5406.5535      1425.741     
    581000   1909.6783     -606.64291      0             -583.19261      3306.6247      1395.5149    
    582000   1744.1099     -611.30351      0             -589.88634     -1277.6657      1460.1194    
    583000   1639.8222     -609.20537      0             -589.06883      510.12717      1445.4626    
    584000   1715.7637     -606.39147      0             -585.32239     -366.64683      1435.1057    
    585000   1641.7332     -608.3997       0             -588.23969     -19269.77       1419.9171    
    586000   1549.8952     -610.75633      0             -591.72406     -11487.535      1454.7058    
    587000   1542.7184     -609.59603      0             -590.65189     -4158.9544      1429.2917    
    588000   1673.1747     -610.37682      0             -589.83071      4442.8198      1380.3093    
    589000   1512.102      -612.60763      0             -594.03945     -11344.816      1450.4944    
    590000   1562.3295     -606.86979      0             -587.68483     -10760.092      1468.8937    
    591000   1528.3073     -611.07431      0             -592.30713      17996.422      1432.7603    
    592000   1530.0923     -612.20739      0             -593.4183       15074.827      1423.0983    
    593000   1344.459      -612.00689      0             -595.49732      12336.869      1386.7656    
    594000   1573.4215     -611.33921      0             -592.01804     -18857.07       1417.5428    
    595000   1772.2109     -611.71802      0             -589.95578     -1126.6793      1431.1362    
    596000   1629.2016     -612.95692      0             -592.9508       12615.114      1424.5889    
    597000   1416.2947     -611.72795      0             -594.33626      9040.3934      1414.2728    
    598000   1615.6158     -610.77913      0             -590.93983     -18750.218      1412.7393    
    599000   1558.0732     -613.52484      0             -594.39215     -19274.709      1442.7229    
    600000   1444.0085     -611.5278       0             -593.79579     -10067.387      1465.5088    
    601000   1614.4615     -610.15537      0             -590.33025      6460.8433      1440.1095    
    602000   1371.044      -612.40845      0             -595.57242      5466.7065      1412.2097    
    603000   1678.5821     -613.87052      0             -593.25801      9138.2758      1409.0061    
    604000   1511.2788     -614.11348      0             -595.55541      987.7141       1408.3086    
    605000   1625.3221     -611.6652       0             -591.70671      10915.128      1452.5525    
    606000   1245.502      -612.65542      0             -597.36101      9588.976       1430.3362    
    607000   1222.0601     -613.81643      0             -598.80988      27137.629      1389.2735    
    608000   1287.0497     -613.16991      0             -597.3653      -7781.4259      1457.2355    
    609000   1386.1745     -614.22254      0             -597.20071      2537.6988      1426.1447    
    610000   1190.0267     -615.13632      0             -600.52314     -4063.3319      1407.747     
    611000   1298.3154     -613.15049      0             -597.20755     -19882.271      1443.7957    
    612000   1397.0468     -612.72157      0             -595.56624     -9763.3515      1465.0315    
    613000   1314.0413     -615.10658      0             -598.97053     -14440.529      1447.8614    
    614000   1388.4129     -614.07438      0             -597.02507      14023.573      1398.0484    
    615000   1263.8857     -616.52548      0             -601.00533     -420.34018      1381.737     
    616000   1298.8014     -616.38077      0             -600.43186      14492.585      1414.8739    
    617000   1203.9341     -615.07021      0             -600.28625      11199.834      1429.3329    
    618000   1207.9495     -612.11143      0             -597.27815     -1680.1099      1394.9989    
    619000   1289.6145     -616.13609      0             -600.29999      13861.015      1406.7605    
    620000   1268.6085     -616.96702      0             -601.38887     -2952.2922      1427.9274    
    621000   1260.0396     -617.49635      0             -602.02343     -13832.129      1454.611     
    622000   1292.4999     -614.39946      0             -598.52794      22965.245      1441.3155    
    623000   1057.8432     -616.5526       0             -603.56259     -39051.213      1439.2559    
    624000   1156.5368     -615.63129      0             -601.42935     -2249.126       1429.5316    
    625000   1201.9717     -617.26335      0             -602.50348      11242.672      1421.5303    
    626000   1066.5528     -619.03164      0             -605.93468     -23813.213      1457.9374    
    627000   1212.8719     -617.61598      0             -602.72226      10615.763      1440.5975    
    628000   1212.7704     -615.23071      0             -600.33824     -21744.87       1440.3936    
    629000   1271.2955     -618.49576      0             -602.88462     -353.99498      1434.7219    
    630000   1117.4076     -617.93714      0             -604.21569     -19953.768      1441.6459    
[...]
Neighs:              0 ave           0 max           0 min
Histogram: 1 0 0 0 0 0 0 0 0 0
FullNghs:         2966 ave        2966 max        2966 min
Histogram: 1 0 0 0 0 0 0 0 0 0

Total # of neighbors = 2966
Ave neighs/atom = 30.895833
Ave special neighs/atom = 0
Neighbor list builds = 119
Dangerous builds = 0


fix npt1 all npt temp 500 10 0.1 iso 0 0 1
run 80000
Per MPI rank memory allocation (min/avg/max) = 8.549 | 8.549 | 8.549 Mbytes
   Step          Temp          E_pair         E_mol          TotEng         Press          Volume    
    880000   484.85494     -625.64197      0             -619.68809     -1693.3019      1402.3144    
    881000   411.73019     -626.39497      0             -621.33904     -8692.8685      1428.3552    
    882000   458.88041     -625.47111      0             -619.83619     -722.19573      1405.4094    
    883000   446.70843     -627.04936      0             -621.56391     -4575.2417      1390.0348    
    884000   546.08359     -626.92681      0             -620.22106     -1551.8599      1398.145     
    885000   500.43449     -627.03068      0             -620.88549     -13063.944      1411.5751    
    886000   524.63131     -626.70165      0             -620.25932      7525.4899      1380.0736    
    887000   477.29992     -627.56262      0             -621.70151      8288.351       1375.006     
    888000   429.33647     -626.03082      0             -620.75869     -2889.0594      1397.8475    
    889000   393.24966     -626.58502      0             -621.75602     -2785.6004      1404.012     
    890000   513.55742     -626.2657       0             -619.95936      2749.1983      1383.9169    
    891000   446.8721      -626.42089      0             -620.93343      1541.0567      1400.553     
    892000   347.65045     -626.06453      0             -621.79548      11863.995      1396.6157    
    893000   470.27177     -627.1973       0             -621.42249      2413.9537      1384.4791    
    894000   397.80471     -625.98146      0             -621.09654     -1039.9131      1412.1395    
    895000   399.10173     -627.11781      0             -622.21695     -16970.441      1408.0088    
    896000   403.99622     -627.6142       0             -622.65324      4790.6278      1392.3182    
    897000   387.03021     -627.77494      0             -623.02232     -2614.8312      1397.4071    
    898000   382.10965     -627.61035      0             -622.91816     -6490.9617      1388.9224    
    899000   340.52071     -627.60084      0             -623.41934      2747.779       1387.7412    
    900000   373.67453     -627.1412       0             -622.55258      6574.7593      1396.3773    
    901000   353.87921     -627.56683      0             -623.22129     -5746.2435      1394.7261    
    902000   363.14853     -627.53549      0             -623.07613     -1738.6736      1402.7103    
    903000   370.65225     -627.98757      0             -623.43607     -5620.4867      1416.6555    
    904000   367.57824     -628.53702      0             -624.02327      9343.8458      1376.6728    
    905000   348.21136     -628.37199      0             -624.09605     -5470.3125      1393.2939    
    906000   340.69299     -628.12612      0             -623.9425       27292.692      1370.5542    
    907000   314.39372     -628.19862      0             -624.33796     -4204.4563      1393.6451    
    908000   320.79044     -628.40168      0             -624.46247      15761.055      1364.2957    
    909000   365.94389     -628.44362      0             -623.94993     -3795.2138      1395.23      
    910000   303.47581     -628.48705      0             -624.76046      3453.2855      1388.8882    
    911000   317.84688     -628.65522      0             -624.75215     -1353.185       1396.3615    
    912000   312.02856     -628.49619      0             -624.66457     -4031.6993      1385.7183    
    913000   239.57855     -628.20596      0             -625.26401      10785.861      1381.2541    
    914000   307.60232     -628.76261      0             -624.98534      10453.981      1380.8929    
    915000   313.31549     -628.50959      0             -624.66216      5478.5708      1374.8689    
    916000   282.04927     -629.03056      0             -625.56707      3515.838       1388.1996    
    917000   289.83569     -629.00886      0             -625.44976     -1667.8174      1391.8531    
    918000   244.17479     -628.85538      0             -625.85698     -897.5867       1393.6661    
    919000   282.59015     -628.84673      0             -625.3766      -7162.3776      1387.689     
    920000   266.82707     -629.06081      0             -625.78425     -4061.8081      1392.8572    
    921000   264.13075     -629.19976      0             -625.95631      2601.9219      1395.6404    
    922000   241.09607     -629.10904      0             -626.14845      11037.424      1384.4808    
    923000   242.55195     -629.84742      0             -626.86895     -1664.6279      1387.7213    
    924000   207.21724     -629.64741      0             -627.10284     -1243.0557      1400.8853    
    925000   206.36957     -629.96983      0             -627.43567      6516.7926      1361.9623    
    926000   222.53063     -629.74019      0             -627.00757      6493.1527      1377.1164    
    927000   212.16661     -629.54981      0             -626.94446     -5006.3362      1390.7799    
    928000   231.23474     -630.0697       0             -627.2302      -6889.6733      1410.9556    
    929000   176.0653      -629.80663      0             -627.6446       3152.7938      1384.3529    
    930000   194.5601      -629.51034      0             -627.1212       2974.6719      1376.7728    
    931000   199.50508     -630.39874      0             -627.94888      6601.0552      1373.7164    
    932000   159.78989     -630.23444      0             -628.27226      2660.5758      1378.7493    
    933000   175.10934     -630.48435      0             -628.33406     -10322.077      1392.6508    
    934000   171.13489     -630.22782      0             -628.12633     -2030.5713      1383.7668    
    935000   162.82196     -630.6616       0             -628.66219      6710.8661      1377.6457    
    936000   166.96719     -630.37249      0             -628.32218      2137.2948      1382.639     
    937000   142.97568     -630.40871      0             -628.65301      663.18254      1388.3217    
    938000   134.96071     -630.41241      0             -628.75513     -314.30011      1376.1956    
    939000   123.57656     -630.62772      0             -629.11024     -2871.3776      1393.7183    
    940000   122.88296     -630.89591      0             -629.38694      2726.7392      1364.9981    
    941000   120.22743     -630.70568      0             -629.22932      2126.4829      1384.675     
    942000   123.35454     -630.77295      0             -629.25819      3050.6993      1377.8343    
    943000   123.07714     -630.91662      0             -629.40526      1382.1084      1383.5283    
    944000   104.60575     -631.02468      0             -629.74015     -4275.2636      1388.5138    
    945000   109.69867     -631.11894      0             -629.77187     -1933.8113      1377.6172    
    946000   94.436841     -631.11263      0             -629.95297      5876.5969      1385.979     
    947000   93.999178     -631.13762      0             -629.98333      5662.7325      1367.0959    
    948000   80.069988     -631.35078      0             -630.36754     -1240.6945      1384.4558    
    949000   68.981416     -631.39769      0             -630.55061      5786.3405      1366.2473    
    950000   62.371146     -631.57109      0             -630.80519      3373.2111      1373.2188    
    951000   71.827482     -631.519        0             -630.63698     -2827.3849      1379.5627    
    952000   59.421089     -631.54706      0             -630.81739      4929.1919      1374.0826    
    953000   55.943004     -631.68908      0             -631.00212      5443.1828      1375.072     
    954000   50.268387     -631.78553      0             -631.16824      1170.8543      1378.3097    
    955000   43.05482      -631.87088      0             -631.34218     -1904.2728      1379.1657    
    956000   41.79523      -632.00405      0             -631.49082      264.13221      1369.2542    
    957000   28.232863     -632.00635      0             -631.65965      1370.6269      1374.4449    
    958000   25.304692     -632.06947      0             -631.75874     -151.18434      1378.2709    
    959000   16.252169     -632.19725      0             -631.99768      2156.4047      1374.1914    
    960000   10.038113     -632.2572       0             -632.13393     -312.30792      1375.4281    
Loop time of 5.44848 on 1 procs for 80000 steps with 96 atoms

Performance: 1268.610 ns/day, 0.019 hours/ns, 14682.984 timesteps/s, 1.410 Matom-step/s
99.3% CPU use with 1 MPI tasks x no OpenMP threads

MPI task timing breakdown:
Section |  min time  |  avg time  |  max time  |%varavg| %total
---------------------------------------------------------------
Pair    | 4.8029     | 4.8029     | 4.8029     |   0.0 | 88.15
Bond    | 0.0030937  | 0.0030937  | 0.0030937  |   0.0 |  0.06
Neigh   | 0.0030325  | 0.0030325  | 0.0030325  |   0.0 |  0.06
Comm    | 0.16428    | 0.16428    | 0.16428    |   0.0 |  3.02
Output  | 0.0096526  | 0.0096526  | 0.0096526  |   0.0 |  0.18
Modify  | 0.44042    | 0.44042    | 0.44042    |   0.0 |  8.08
Other   |            | 0.02508    |            |       |  0.46

Nlocal:             96 ave          96 max          96 min
Histogram: 1 0 0 0 0 0 0 0 0 0
Nghost:            482 ave         482 max         482 min
Histogram: 1 0 0 0 0 0 0 0 0 0
Neighs:              0 ave           0 max           0 min
Histogram: 1 0 0 0 0 0 0 0 0 0
FullNghs:         2998 ave        2998 max        2998 min
Histogram: 1 0 0 0 0 0 0 0 0 0

Total # of neighbors = 2998
Ave neighs/atom = 31.229167
Ave special neighs/atom = 0
Neighbor list builds = 24
Dangerous builds = 0

fix npt1 all npt temp 10 10 0.1 iso 0 0 1
run 80000
Per MPI rank memory allocation (min/avg/max) = 8.549 | 8.549 | 8.549 Mbytes
   Step          Temp          E_pair         E_mol          TotEng         Press          Volume    
    960000   10.038113     -632.2572       0             -632.13393     -312.30792      1375.4281    
    961000   9.1504773     -632.25347      0             -632.1411      -1788.2089      1377.7328    
    962000   10.546515     -632.26227      0             -632.13276      1385.3979      1374.7341    
    963000   9.9297553     -632.25805      0             -632.13612     -1957.7205      1377.2344    
    964000   9.3373275     -632.25558      0             -632.14092     -822.76717      1374.8768    
    965000   11.929163     -632.26231      0             -632.11583     -1736.4496      1376.8304    
    966000   8.9674488     -632.25924      0             -632.14912     -1207.496       1376.8238    
    967000   9.0137404     -632.25259      0             -632.14191     -25.490752      1374.2086    
    968000   10.737881     -632.27809      0             -632.14624     -3249.5358      1379.2438    
    969000   10.377416     -632.24971      0             -632.12228     -3031.9369      1375.8231    
    970000   9.1701682     -632.26454      0             -632.15193      1212.3554      1375.7932    
    971000   10.128444     -632.24959      0             -632.12521      1068.2006      1373.9388    
    972000   10.261535     -632.26796      0             -632.14195      2419.4511      1371.2375    
    973000   9.3552935     -632.25978      0             -632.1449      -632.46474      1373.1004    
    974000   9.0614055     -632.24263      0             -632.13136      361.02812      1375.2664    
    975000   10.848352     -632.26881      0             -632.13559      2455.0107      1377.2713    
    976000   9.1685009     -632.27712      0             -632.16453      395.34241      1374.2634    
    977000   9.3350888     -632.24841      0             -632.13378     -65.869281      1376.925     
    978000   9.3813911     -632.27595      0             -632.16075     -2609.3353      1376.2576    
    979000   9.6346818     -632.25628      0             -632.13797      463.90321      1376.2802    
    980000   10.61883      -632.25333      0             -632.12293     -1645.9238      1374.5415    
    981000   8.5446135     -632.24637      0             -632.14144     -1507.6299      1376.3159    
    982000   10.023783     -632.23721      0             -632.11412     -105.53042      1374.1105    
    983000   9.3122102     -632.26408      0             -632.14972     -1785.1481      1376.7995    
    984000   8.9021806     -632.26459      0             -632.15527      933.78247      1376.5197    
    985000   8.3873963     -632.24339      0             -632.1404       238.61246      1374.1714    
    986000   8.7395281     -632.24688      0             -632.13956      2380.6475      1377.0353    
    987000   8.5494536     -632.25255      0             -632.14756     -213.73948      1374.9522    
    988000   9.6636005     -632.25         0             -632.13134      1700.9996      1374.3689    
    989000   9.8671666     -632.27093      0             -632.14976     -274.53841      1376.2647    
    990000   9.5994278     -632.27971      0             -632.16183     -121.70548      1379.4385    
    991000   10.207707     -632.24621      0             -632.12086     -427.22601      1376.0355    
    992000   9.6626525     -632.25912      0             -632.14046     -343.79894      1374.8527    
    993000   9.239241      -632.24517      0             -632.13172     -822.03769      1370.6684    
    994000   9.8756646     -632.25646      0             -632.13519     -1681.6562      1380.1254    
    995000   9.3799793     -632.26168      0             -632.1465      -2277.3967      1373.4024    
    996000   10.186553     -632.23325      0             -632.10816      1444.61        1376.9111    
    997000   8.0646012     -632.25317      0             -632.15414      271.87161      1370.9076    
    998000   10.053525     -632.25232      0             -632.12886      196.16169      1378.1043    
    999000   9.2702217     -632.27019      0             -632.15635      1445.1513      1370.8547    
   1000000   9.6226657     -632.25398      0             -632.13582      1488.1806      1373.5244    
   1001000   9.3713496     -632.25436      0             -632.13928      1388.684       1374.1897    
   1002000   10.839361     -632.25346      0             -632.12036      1399.8813      1370.747     
   1003000   10.380269     -632.26417      0             -632.1367      -1464.423       1375.3726    
   1004000   7.9806161     -632.23935      0             -632.14135     -857.66827      1377.9304    
   1005000   9.6608658     -632.24448      0             -632.12585     -853.9762       1373.2223    
   1006000   8.9917679     -632.25535      0             -632.14493     -180.28411      1373.9002    
   1007000   10.603016     -632.25866      0             -632.12846     -584.5083       1377.1069    
   1008000   10.041293     -632.25951      0             -632.1362       1893.117       1372.444     
   1009000   11.112674     -632.27374      0             -632.13728      934.04401      1372.6342    
   1010000   11.639154     -632.25058      0             -632.10765      183.70535      1373.3208    
   1011000   11.402286     -632.26716      0             -632.12714      3424.7854      1372.026     
   1012000   11.003567     -632.25173      0             -632.11661      1858.7178      1374.8222    
   1013000   9.7861269     -632.24909      0             -632.12892     -199.57863      1377.2177    
   1014000   8.4840646     -632.27082      0             -632.16664      1267.4047      1375.8317    
   1015000   10.936832     -632.26376      0             -632.12945     -21.044395      1377.1325    
   1016000   9.6918171     -632.25244      0             -632.13343      178.6812       1372.5621    
   1017000   10.13435      -632.27755      0             -632.1531      -498.08543      1376.6946    
   1018000   9.2716336     -632.24509      0             -632.13124     -3992.4752      1378.9981    
   1019000   8.2788097     -632.23808      0             -632.13642      531.15974      1376.7176    
   1020000   9.5520009     -632.25419      0             -632.13689     -699.99511      1376.8108    
   1021000   9.4095763     -632.25667      0             -632.14112     -1789.7666      1379.4769    
   1022000   11.410973     -632.26482      0             -632.1247      -390.89481      1376.3128    
   1023000   8.3602474     -632.27569      0             -632.17303      792.79667      1376.5612    
   1024000   9.6440336     -632.2492       0             -632.13077     -571.69416      1375.3457    
   1025000   10.191275     -632.24825      0             -632.12311      3598.5609      1375.4798    
   1026000   9.9749503     -632.26083      0             -632.13834      1156.8124      1373.6261    
   1027000   9.3705814     -632.24671      0             -632.13164     -907.82585      1376.9341    
   1028000   7.8135255     -632.26643      0             -632.17048      1900.0104      1378.4827    
   1029000   10.966924     -632.25993      0             -632.12526     -2350.4732      1373.4004    
   1030000   10.440372     -632.26157      0             -632.13337     -2095.5423      1379.5508    
   1031000   8.2975369     -632.26197      0             -632.16008      885.64717      1376.7047    
   1032000   11.451381     -632.26119      0             -632.12058     -2663.6704      1381.4297    
   1033000   9.9442814     -632.26767      0             -632.14556     -2781.6329      1373.4902    
   1034000   9.8908737     -632.25405      0             -632.13259      309.34119      1373.5277    
   1035000   9.9503543     -632.25842      0             -632.13623     -559.66331      1373.7477    
   1036000   8.6881245     -632.26746      0             -632.16077      2094.6567      1372.4043    
   1037000   11.974402     -632.24714      0             -632.1001       1140.8307      1372.4486    
   1038000   9.6409487     -632.2624       0             -632.14402      150.15084      1375.0936    
   1039000   11.206734     -632.25933      0             -632.12171     -2117.5619      1375.3762    
   1040000   10.821743     -632.27071      0             -632.13783     -534.0128       1376.0847    
Loop time of 5.42952 on 1 procs for 80000 steps with 96 atoms

Performance: 1273.041 ns/day, 0.019 hours/ns, 14734.272 timesteps/s, 1.414 Matom-step/s
99.3% CPU use with 1 MPI tasks x no OpenMP threads

MPI task timing breakdown:
Section |  min time  |  avg time  |  max time  |%varavg| %total
---------------------------------------------------------------
Pair    | 4.7833     | 4.7833     | 4.7833     |   0.0 | 88.10
Bond    | 0.0029336  | 0.0029336  | 0.0029336  |   0.0 |  0.05
Neigh   | 0          | 0          | 0          |   0.0 |  0.00
Comm    | 0.17214    | 0.17214    | 0.17214    |   0.0 |  3.17
Output  | 0.0099699  | 0.0099699  | 0.0099699  |   0.0 |  0.18
Modify  | 0.43566    | 0.43566    | 0.43566    |   0.0 |  8.02
Other   |            | 0.02556    |            |       |  0.47

Nlocal:             96 ave          96 max          96 min
Histogram: 1 0 0 0 0 0 0 0 0 0
Nghost:            506 ave         506 max         506 min
Histogram: 1 0 0 0 0 0 0 0 0 0
Neighs:              0 ave           0 max           0 min
Histogram: 1 0 0 0 0 0 0 0 0 0
FullNghs:         3004 ave        3004 max        3004 min
Histogram: 1 0 0 0 0 0 0 0 0 0

Total # of neighbors = 3004
Ave neighs/atom = 31.291667
Ave special neighs/atom = 0
Neighbor list builds = 0
Dangerous builds = 0


write_data amorphousSiO.data
System init for write_data ...


Total wall time: 0:01:20
