96
 Atoms. Timestep: 0
2 0 7.95642 4.74695
2 4.63304 0 11.358
2 0 4.63304 4.74695
2 7.95642 0 11.358
2 0 4.63304 8.47514
2 7.95642 0 1.8641
2 0 7.95642 8.47514
2 4.63304 0 1.8641
2 10.7421 8.43088 6.61105
2 4.15858 10.7421 0
2 1.84736 4.15858 6.61105
2 8.43088 1.84736 0
2 1.84736 8.43088 6.61105
2 8.43088 10.7421 0
2 10.7421 4.15858 6.61105
2 4.15858 1.84736 0
2 10.5201 6.29473 5.04003
2 6.29473 10.5201 11.6511
2 2.06934 6.29473 5.04003
2 6.29473 2.06934 11.6511
2 2.06934 6.29473 8.18207
2 6.29473 2.06934 1.57102
2 10.5201 6.29473 8.18207
2 6.29473 10.5201 1.57102
2 10.1594 8.65935 9.20274
2 3.93011 10.1594 2.59169
2 2.43004 3.93011 9.20274
2 8.65935 2.43004 2.59169
2 2.43004 8.65935 9.20274
2 8.65935 10.1594 2.59169
2 10.1594 3.93011 9.20274
2 3.93011 2.43004 2.59169
2 2.43004 3.93011 4.01936
2 8.65935 2.43004 10.6304
2 10.1594 8.65935 4.01936
2 3.93011 10.1594 10.6304
2 10.1594 3.93011 4.01936
2 3.93011 2.43004 10.6304
2 2.43004 8.65935 4.01936
2 8.65935 10.1594 10.6304
2 0 10.703 0
2 1.88643 0 6.61105
2 0 1.88643 0
2 10.703 0 6.61105
2 0 0 1.872
2 0 0 8.48305
2 0 0 11.3501
2 0 0 4.73905
2 11.2706 2.31295 2.18973
2 10.2765 11.2706 8.80078
2 1.31887 10.2765 2.18973
2 2.31295 1.31887 8.80078
2 1.31887 2.31295 2.18973
2 2.31295 11.2706 8.80078
2 11.2706 10.2765 2.18973
2 10.2765 1.31887 8.80078
2 1.31887 10.2765 11.0324
2 2.31295 1.31887 4.42131
2 11.2706 2.31295 11.0324
2 10.2765 11.2706 4.42131
2 11.2706 10.2765 11.0324
2 10.2765 1.31887 4.42131
2 1.31887 2.31295 11.0324
2 2.31295 11.2706 4.42131
1 11.0086 7.83654 8.10972
1 4.75292 11.0086 1.49867
1 1.5809 4.75292 8.10972
1 7.83654 1.5809 1.49867
1 1.5809 7.83654 8.10972
1 7.83654 11.0086 1.49867
1 11.0086 4.75292 8.10972
1 4.75292 1.5809 1.49867
1 1.5809 4.75292 5.11238
1 7.83654 1.5809 11.7234
1 11.0086 7.83654 5.11238
1 4.75292 11.0086 11.7234
1 11.0086 4.75292 5.11238
1 4.75292 1.5809 11.7234
1 1.5809 7.83654 5.11238
1 7.83654 11.0086 11.7234
1 10.1088 10.1088 3.30552
1 2.48067 10.1088 9.91657
1 2.48067 2.48067 3.30552
1 10.1088 2.48067 9.91657
1 2.48067 10.1088 3.30552
1 10.1088 10.1088 9.91657
1 10.1088 2.48067 3.30552
1 2.48067 2.48067 9.91657
1 0 1.60471 1.57853
1 10.9848 0 8.18958
1 0 10.9848 1.57853
1 1.60471 0 8.18958
1 0 10.9848 11.6436
1 1.60471 0 5.03252
1 0 1.60471 11.6436
1 10.9848 0 5.03252
96
 Atoms. Timestep: 2000
2 12.51 8.84599 4.96922
2 4.28116 12.5088 11.8335
2 0.675675 5.07801 3.98095
2 8.09032 0.0367189 11.7301
2 12.4021 4.08505 7.75765
2 7.48102 0.147705 1.26061
2 12.2356 8.31364 8.91929
2 3.9813 0.040259 2.46234
2 10.0238 8.2961 6.79334
2 4.75221 9.70741 12.8787
2 1.37845 4.14681 6.31022
2 8.17981 1.94309 0.210284
2 1.10263 8.98224 6.79669
2 8.69626 10.8055 12.9046
2 11.1698 4.31176 5.81775
2 4.45678 2.28824 13.1765
2 11.0945 6.52613 5.27598
2 6.64769 10.768 10.9782
2 2.01295 6.9133 5.43411
2 6.56486 1.90784 11.885
2 1.36389 6.4097 8.4855
2 5.91296 1.93281 1.33253
2 10.901 6.0345 8.50525
2 6.60894 11.1329 1.15879
2 10.4114 7.92818 9.54067
2 3.67572 10.6955 1.66364
2 1.75051 3.81761 9.52956
2 8.57464 2.02297 2.9394
2 2.05975 9.06369 8.69211
2 9.26865 11.0173 2.40278
2 10.0115 3.90923 8.82767
2 2.67504 2.8709 2.52571
2 2.35727 3.51483 4.47866
2 8.66778 2.72628 10.8567
2 10.4356 9.3355 4.29283
2 3.73597 9.80179 10.6887
2 10.7331 4.31925 3.30427
2 3.71074 1.70258 11.1925
2 2.53133 8.8917 4.15264
2 9.42744 10.6904 10.2608
2 1.47494 8.27868 0.0144074
2 1.8766 -0.0822225 6.79996
2 12.1862 1.78586 13.2145
2 10.9008 12.5054 6.71794
2 0.0952849 -0.105799 1.73044
2 12.4473 0.0513466 8.30043
2 0.0139651 10.3363 -0.109758
2 0.0171557 -0.066692 4.6331
2 10.8996 2.21295 1.64668
2 11.0265 11.1336 8.77546
2 0.881715 10.1311 2.47747
2 2.11154 1.22638 9.19038
2 0.282701 1.73561 2.72526
2 1.67625 11.4864 9.66057
2 11.7521 11.0556 2.24142
2 11.0267 1.48383 9.35014
2 0.943714 9.88518 10.5777
2 2.19964 0.936267 4.20177
2 11.5622 2.8768 10.6867
2 10.5697 11.8673 4.48767
2 12.0057 9.22128 11.3594
2 10.5308 1.98977 4.31007
2 0.735814 2.11443 10.9549
2 2.63551 11.5747 4.17813
1 9.60502 7.16285 8.39474
1 5.06555 10.283 0.810744
1 1.22384 4.55389 8.27619
1 7.57671 1.50249 1.62957
1 0.824923 8.03929 8.22861
1 8.2903 11.4926 1.01188
1 10.9635 4.55434 7.34622
1 3.99415 1.60653 1.3501
1 2.0377 5.16699 5.01754
1 8.18545 1.48247 12.0883
1 11.081 8.368 5.50955
1 4.95058 10.5444 11.2943
1 11.6316 5.18509 4.41707
1 5.29777 1.14652 12.3978
1 1.40154 8.36386 5.27722
1 8.11915 11.3163 11.2454
1 10.801 10.5497 3.14729
1 2.42667 9.99547 9.85002
1 1.52082 2.28116 3.44827
1 9.90708 2.75289 9.83509
1 2.6464 9.97173 3.15867
1 11.0131 9.41353 9.78027
1 10.1101 2.97423 2.9848
1 2.25218 2.29431 10.4644
1 12.3405 1.44739 1.38742
1 10.8337 12.6741 8.40036
1 0.169484 11.0899 1.28807
1 1.28752 -0.0388562 8.50225
1 0.762442 9.35787 12.1205
1 1.56261 12.4637 4.99204
1 12.6463 2.95221 12.1252
1 11.165 0.536296 5.07688
96
 Atoms. Timestep: 4000
2 12.781 9.08431 5.20916
2 4.59383 12.6749 11.2685
2 12.5318 4.41453 4.99402
2 8.13177 0.243423 12.2035
2 12.2684 4.29043 8.77651
2 7.31032 0.186699 1.87139
2 0.148943 7.56524 8.52716
2 4.44105 12.7033 0.923511
2 10.8186 8.26612 6.58071
2 4.83902 10.6387 0.0289894
2 2.33438 5.65081 6.60494
2 8.05587 2.07062 13.0761
2 1.20571 7.40147 6.47486
2 8.63486 11.1878 0.405816
2 11.3332 5.04072 6.54628
2 3.95652 1.33315 13.352
2 10.5502 6.43141 5.1886
2 6.73114 11.0864 12.1788
2 1.10374 6.3116 4.7843
2 6.23887 1.8299 11.2765
2 1.2524 6.06737 9.31988
2 6.35704 2.4196 1.63772
2 11.5653 6.22675 8.5019
2 6.28434 11.3988 2.21716
2 10.0189 8.64096 8.7509
2 3.61474 10.4673 2.64941
2 1.4295 3.41678 9.00324
2 8.73596 1.91978 2.52685
2 2.72649 8.38337 8.43111
2 8.72671 10.9221 2.94225
2 9.94897 3.28254 8.5423
2 3.36257 2.70196 2.27125
2 2.14618 3.99734 4.36402
2 9.24709 1.79034 10.6405
2 10.5752 9.5372 3.93595
2 4.00809 9.66012 11.0489
2 10.7626 3.79743 3.89379
2 3.55245 2.12065 10.8872
2 1.65353 8.63453 3.24283
2 9.21279 10.8746 10.9257
2 12.619 7.54214 12.6361
2 1.58115 -0.00704289 7.00135
2 12.6256 2.64399 13.4151
2 11.4445 12.3867 6.14542
2 0.290716 0.462171 0.757149
2 -0.0828715 12.6551 8.7257
2 -0.0843873 10.3467 12.9715
2 0.421371 0.270173 4.65326
2 11.27 2.44171 2.07391
2 10.8588 11.3238 8.73242
2 1.15265 11.2741 1.9635
2 1.90971 1.127 8.60423
2 0.964654 2.60956 2.34738
2 2.49199 11.0154 9.23582
2 11.7398 10.8524 1.62725
2 10.9871 1.38027 8.50726
2 0.992553 8.89128 10.8357
2 2.59118 1.08882 4.54504
2 11.5172 2.66516 10.556
2 10.8335 12.3345 3.63596
2 11.3 9.45889 11.0618
2 10.5644 1.27676 4.51531
2 1.45189 2.6385 11.1878
2 2.0413 11.1898 4.42589
1 11.2721 7.74758 8.1608
1 4.71448 11.1996 1.64372
1 0.498267 4.7722 9.88329
1 7.89016 1.63362 1.21547
1 2.08415 6.79734 7.95083
1 7.77263 11.4101 1.74408
1 10.6826 4.72485 8.07951
1 4.64478 1.49937 1.21584
1 1.1391 4.8768 5.60564
1 7.85124 1.72159 11.3503
1 11.1204 8.38808 5.05926
1 4.7094 10.9123 12.0408
1 10.9258 4.95277 5.05158
1 4.47048 1.18567 11.7862
1 1.09821 7.9518 4.84901
1 8.31556 11.3828 12.065
1 10.6987 10.9176 2.95176
1 2.3364 9.12877 9.87806
1 2.232 2.59206 3.5619
1 10.4213 2.16141 9.58005
1 1.79061 10.1133 3.11956
1 10.0923 9.96108 9.543
1 10.031 2.38659 3.28394
1 2.35507 2.2384 9.71475
1 12.6837 2.01198 1.53617
1 11.3087 12.6601 8.00775
1 12.7055 11.6568 0.801371
1 1.57843 12.3367 8.74033
1 12.5847 9.07924 11.858
1 1.70411 12.6645 5.09964
1 -0.166302 3.02622 11.6606
1 11.8034 0.472856 4.82323
96
 Atoms. Timestep: 6000
2 -0.285621 7.22936 3.92337
2 4.72305 0.360653 11.6327
2 -0.300067 5.46854 5.86491
2 8.02666 0.14893 12.0142
2 12.3693 4.78909 8.74284
2 8.28637 0.188035 1.72368
2 12.5245 8.1915 7.30033
2 4.64502 12.7123 1.93101
2 10.7997 8.26299 6.13771
2 4.38646 11.4052 13.4613
2 1.55063 4.534 6.82837
2 8.10662 1.81784 0.0785404
2 1.7301 7.82428 5.68073
2 7.61704 11.589 0.185439
2 10.443 4.71185 7.32662
2 4.19789 2.28593 0.139875
2 10.3312 6.13856 5.04568
2 6.17008 11.0956 11.1316
2 2.28642 6.09063 4.18355
2 6.08341 2.15782 11.5153
2 1.5414 6.66761 8.11759
2 6.5376 2.15706 1.90651
2 10.905 6.75311 8.79904
2 6.16072 10.8209 2.11624
2 10.0011 9.34319 8.15125
2 3.05646 10.4388 1.69555
2 2.77486 4.14405 8.64386
2 9.51623 2.64127 2.37463
2 1.96053 8.56397 9.17572
2 8.4211 10.5734 3.13233
2 10.2034 3.82547 10.0222
2 3.62227 2.45509 2.77354
2 1.16762 3.36924 4.67283
2 9.00656 2.14871 10.9438
2 10.281 8.58721 3.69702
2 3.26457 10.3996 11.7165
2 10.2942 3.69606 4.61124
2 3.55835 3.04977 11.1274
2 1.72376 9.28149 3.69103
2 9.31316 11.086 10.8413
2 10.4086 8.39635 12.5438
2 2.81549 12.0534 6.67272
2 0.506202 1.58735 12.8705
2 11.0585 0.18966 6.42915
2 12.6307 12.7627 1.01223
2 0.576787 0.175624 8.55727
2 12.6418 10.0097 13.0248
2 0.678605 12.1078 5.21297
2 11.5282 2.46362 1.90563
2 11.1366 11.5032 8.28776
2 0.368365 10.4085 2.27413
2 3.09192 0.883724 9.24418
2 1.00753 2.29895 2.03656
2 2.11053 11.258 9.65717
2 11.1463 10.8643 1.72822
2 11.0173 1.35491 9.07728
2 1.03701 8.97334 11.2803
2 2.30312 1.31518 4.91373
2 11.4398 2.12059 11.4734
2 11.0642 11.4274 4.15645
2 11.4452 9.66642 10.5608
2 11.021 0.883498 4.21111
2 1.14116 1.75422 10.1883
2 2.57722 11.5687 3.69225
1 11.0254 8.06235 7.83148
1 4.64446 11.0792 1.45265
1 1.142 5.04432 8.35779
1 8.19577 1.93988 1.75462
1 1.39363 8.03692 7.23487
1 7.4946 11.6394 1.974
1 10.5349 5.15057 9.03664
1 4.77657 1.50737 1.56161
1 1.40549 4.79472 5.36692
1 7.72645 1.90271 11.965
1 11.1033 7.57951 4.74341
1 4.83106 11.2369 11.9015
1 10.8451 4.91828 5.76411
1 4.63677 2.11558 11.9032
1 1.38577 7.62751 3.97374
1 7.95771 11.313 12.1309
1 10.1275 10.0863 3.27761
1 2.09409 9.65051 10.2722
1 2.07453 2.23077 3.5895
1 10.3331 2.22889 10.0367
1 1.8343 10.3401 2.8038
1 10.4952 10.6655 9.53941
1 10.7039 2.41714 3.36697
1 2.85786 2.40019 9.70748
1 12.713 1.5862 0.90936
1 11.8082 0.0523012 7.86311
1 12.4878 10.9706 0.838296
1 2.32219 12.3239 8.33347
1 11.9026 8.90915 12.0018
1 2.16002 12.5318 5.19896
1 0.119385 1.31147 11.3393
1 11.7327 12.4847 4.97567
96
 Atoms. Timestep: 8000
2 0.289633 8.84439 4.86047
2 4.19739 12.5253 11.7824
2 12.5369 5.27056 4.34183
2 8.11773 12.2867 11.3849
2 11.9468 4.46255 8.1429
2 8.19565 0.0498606 0.952169
2 0.630709 7.97149 10.1595
2 4.66533 0.00853918 2.11231
2 11.3013 8.48077 6.42012
2 5.02118 10.8516 0.0442638
2 0.958476 4.13226 6.73697
2 8.20276 1.70879 12.819
2 1.97492 7.71675 6.81105
2 8.28782 10.93 13.1854
2 9.81635 5.02066 5.73835
2 4.77951 1.14297 -0.130057
2 10.5345 6.87342 3.96771
2 5.96483 10.3631 11.6512
2 1.58322 6.09933 4.62228
2 6.00322 0.616633 11.3448
2 0.816908 6.13175 9.14241
2 6.64924 1.8476 1.50496
2 10.4038 6.72872 8.23679
2 6.58144 11.3531 1.77209
2 10.9513 8.90109 8.6914
2 3.74045 11.1332 2.92131
2 1.97187 3.91795 9.29419
2 8.81826 1.98408 2.29424
2 2.4633 8.62035 9.02554
2 9.21523 10.9044 2.09614
2 9.47432 3.44359 8.20591
2 4.05265 2.47499 2.28053
2 1.64163 3.60654 4.29555
2 8.1094 2.06716 9.97704
2 10.6308 9.71024 3.77349
2 3.4741 9.99174 11.2861
2 9.97178 3.62771 3.63933
2 3.34667 2.13323 11.4754
2 2.47919 9.39823 4.69486
2 8.92109 10.4103 10.3838
2 0.90102 8.55091 11.4247
2 1.7383 12.1432 7.06877
2 12.4013 1.64955 13.3375
2 11.5734 12.8108 7.13348
2 0.160663 -0.149737 1.47485
2 0.157132 0.423977 9.13673
2 0.304113 10.787 13.1236
2 -0.24383 0.337495 5.36492
2 11.6442 2.2022 2.03661
2 10.9369 11.591 9.77199
2 1.27543 10.4445 2.17582
2 2.41689 1.22914 9.24724
2 1.42344 1.55154 1.84065
2 2.4948 11.2005 9.04473
2 11.7665 10.8414 1.90782
2 10.3932 0.753655 8.66405
2 0.986141 10.6411 10.2669
2 2.66442 0.867921 4.48255
2 10.4898 2.00559 10.9455
2 10.4443 11.9821 4.69888
2 11.5882 9.38468 11.1911
2 10.9359 1.33348 4.67351
2 0.346798 2.29667 10.9938
2 1.71711 12.1857 4.22891
1 11.5584 7.69397 7.87107
1 4.89742 11.2397 1.72014
1 0.700821 4.62544 8.38142
1 8.14574 1.60804 0.765258
1 1.27862 7.65597 8.55477
1 7.78989 11.3317 0.984915
1 10.3252 5.07837 7.65161
1 5.02423 1.47518 1.64386
1 0.894423 4.87604 5.2573
1 7.7035 1.04281 11.2791
1 11.3306 8.67886 4.76005
1 4.45837 10.884 12.1709
1 10.6305 5.20238 4.12547
1 4.54246 1.24237 12.0374
1 1.72598 7.90765 5.0814
1 7.55558 10.6176 11.5475
1 10.6358 11.0843 3.31942
1 2.59119 10.0356 9.9862
1 2.54698 2.21377 3.53331
1 9.74925 2.09382 9.31095
1 2.3095 10.7877 3.70764
1 10.4914 9.93696 9.97932
1 10.3566 1.94024 3.17884
1 2.26058 2.49183 10.259
1 -0.105105 1.70743 1.1252
1 11.7069 -0.102118 8.78342
1 0.160849 11.2405 1.14288
1 2.00595 12.7591 8.87536
1 0.0528913 9.9548 11.6546
1 1.77525 -0.0798629 5.74531
1 11.8989 2.34242 11.8497
1 11.1763 0.0166276 5.61669
96
 Atoms. Timestep: 10000
2 -0.160807 7.25019 4.11197
2 4.99707 12.3438 12.6615
2 0.00332901 4.91272 4.75786
2 7.73701 -0.0339621 12.0156
2 -0.34095 3.97452 8.21689
2 7.97534 0.54473 2.20968
2 0.288047 8.34286 8.43442
2 4.73024 0.241488 1.52408
2 11.2786 7.99734 6.55495
2 3.85301 11.3143 0.147869
2 1.97402 4.60056 5.96246
2 7.53798 1.75673 -0.0447014
2 2.21816 7.88831 6.19976
2 7.96745 11.7845 -0.129784
2 11.2956 4.2365 6.73174
2 5.01143 1.66381 13.1201
2 10.78 6.20295 4.9237
2 5.88665 10.4362 12.7154
2 2.09922 6.27425 3.78131
2 6.23295 1.59221 11.5334
2 1.2822 6.14727 7.53256
2 6.56532 2.50447 2.15114
2 11.5964 6.46915 8.82853
2 6.31011 11.4529 1.32304
2 10.9159 8.8657 8.84071
2 3.83905 11.1624 2.94003
2 2.05092 3.33514 8.84608
2 9.02133 3.0049 2.39806
2 2.75657 9.12813 8.8815
2 8.76203 11.3918 2.45171
2 9.97349 4.08426 9.63391
2 3.52956 2.15595 2.22136
2 2.21218 3.5672 3.58027
2 8.90205 2.44625 11.2981
2 10.5743 9.13314 3.57133
2 3.74556 10.2174 11.0128
2 10.8285 3.80833 3.82677
2 3.8321 0.847486 10.971
2 2.05321 8.82969 3.34754
2 9.22595 10.1979 11.3197
2 -0.0688 8.12901 12.1442
2 0.952065 12.4435 6.78342
2 12.6667 1.22807 12.9183
2 10.3563 12.8389 6.78122
2 -0.079708 12.6685 0.551776
2 12.2961 0.153059 8.54559
2 0.404923 10.3831 13.4375
2 12.2101 0.174512 5.16152
2 11.4957 2.08543 1.67433
2 10.8989 11.7488 9.59675
2 0.992617 11.4843 2.44078
2 2.10081 0.569146 8.95712
2 1.09642 1.11978 1.73755
2 1.41127 11.3751 8.85287
2 11.1963 10.5338 1.66178
2 9.85631 1.07413 9.00965
2 1.34282 9.83507 10.8299
2 1.65818 1.27569 4.53642
2 11.2934 2.66242 11.1073
2 10.3391 12.1068 3.73924
2 11.7633 9.81258 11.5767
2 10.7002 1.48458 4.56749
2 1.61435 2.525 11.4409
2 1.15008 11.2794 4.41769
1 11.9877 8.00744 7.97531
1 4.75496 11.6288 1.5682
1 1.23699 4.28491 7.55825
1 7.9491 2.20526 1.57546
1 1.64382 7.80378 8.00094
1 7.79651 12.2328 1.50822
1 10.9721 4.917 8.42077
1 4.93457 1.64506 2.35779
1 1.66016 4.70146 4.28327
1 7.68818 1.62046 12.2779
1 11.4592 8.04751 4.76574
1 4.48362 10.9347 12.5117
1 11.399 4.74974 5.10951
1 4.93672 0.635973 11.7792
1 1.61548 7.84449 4.54154
1 7.64339 11.1216 12.3158
1 10.1713 10.6404 2.92305
1 2.31924 10.7296 9.96491
1 2.03313 2.09898 2.92791
1 9.89851 2.18054 10.09
1 2.19169 10.4949 3.32017
1 10.634 10.1136 10.1691
1 10.4547 2.41886 2.97628
1 2.88301 1.72507 10.0057
1 12.8126 1.19947 0.864222
1 10.8063 -0.0276307 8.36733
1 -0.18474 11.1196 1.15949
1 0.74785 -0.258439 8.31462
1 0.382782 9.65278 12.0526
1 0.671945 12.6907 5.23432
1 12.763 2.28643 11.7374
1 10.4648 -0.119833 5.0295
96
 Atoms. Timestep: 12000
2 0.215355 8.3635 4.93677
2 5.00974 -0.0845464 11.0522
2 0.302473 4.23839 4.92489
2 8.44328 -0.182463 11.1316
2 12.4139 5.42813 8.92423
2 8.26933 12.5855 1.25765
2 12.0368 8.25972 8.11434
2 3.94985 12.747 0.661304
2 10.6538 8.01916 5.9269
2 4.39678 10.7049 12.9238
2 0.838617 6.11233 11.174
2 7.89677 1.1754 13.4737
2 1.39945 8.17628 6.50272
2 8.14453 10.8443 13.6317
2 11.3158 4.5697 6.8131
2 4.76465 1.90419 13.2198
2 11.6085 6.03864 4.12114
2 6.51228 10.6741 11.4086
2 1.7798 6.38195 4.40432
2 6.66918 1.84995 11.2516
2 1.0923 6.57664 8.63365
2 6.0102 1.19606 1.43495
2 10.1456 6.38973 7.97287
2 6.27952 11.1763 1.79666
2 9.72676 9.30063 8.54699
2 4.20418 10.7381 2.54186
2 1.98324 3.93496 9.90118
2 8.80429 1.30686 2.64832
2 1.28017 9.20232 9.07682
2 9.26488 10.4791 2.18003
2 10.4573 4.09189 9.5892
2 2.963 1.6408 2.04425
2 2.09344 3.68003 3.57967
2 9.59193 2.31374 11.541
2 11.1062 8.67498 3.24293
2 3.29172 10.6219 10.8751
2 10.0824 3.35724 4.94003
2 3.7756 1.98755 10.7084
2 2.58496 8.71087 3.45819
2 9.11519 11.0497 10.4915
2 11.2571 8.96444 0.0214163
2 2.14983 0.00150939 7.08086
2 12.1426 1.91671 -0.0169899
2 11.4467 0.0137261 6.59924
2 12.6761 0.00896762 1.57548
2 0.510617 1.4886 7.97265
2 12.7134 10.8942 12.8743
2 0.35616 12.5402 5.3118
2 11.2696 1.33332 2.9139
2 10.9274 11.7185 8.42066
2 1.79112 10.646 1.49672
2 2.37412 1.52208 9.37832
2 0.557939 2.5232 2.05063
2 1.23505 11.9782 9.45532
2 11.9593 10.6948 1.44345
2 10.736 1.0753 9.25303
2 0.166845 9.99821 10.7006
2 2.215 0.848968 3.9844
2 12.1405 2.38385 10.9025
2 10.9345 10.859 4.16176
2 11.251 9.5659 10.453
2 10.568 0.504455 4.85948
2 1.4324 1.97921 11.7836
2 2.18029 11.4498 4.32371
1 10.3822 7.92064 7.46624
1 4.52907 11.3557 0.824891
1 0.884417 5.3372 9.74427
1 7.79208 1.01295 1.41331
1 0.601004 8.18992 8.01362
1 7.77132 10.8272 1.41436
1 10.8272 5.09201 8.14419
1 4.23662 1.17267 1.00392
1 1.81686 4.77014 4.66705
1 8.22081 1.36444 11.9438
1 11.5134 7.72466 4.63399
1 4.96907 11.3047 11.5013
1 11.4446 4.34459 4.96045
1 5.00104 1.22764 11.7523
1 1.92547 7.9464 4.59755
1 7.98285 11.0627 11.7862
1 11.0028 10.1919 2.61461
1 1.76379 10.5031 10.2203
1 1.7254 2.20171 2.94615
1 10.6471 2.57515 10.2656
1 2.76711 10.4248 3.06452
1 10.1755 10.6326 9.48524
1 9.97131 1.70677 4.09255
1 2.33731 2.15046 10.6185
1 12.1979 1.72455 1.58094
1 11.3978 0.186241 8.11921
1 0.374667 11.4132 0.702057
1 1.56601 0.307654 8.50704
1 12.2311 9.52669 12.0281
1 2.09364 -0.00688774 5.34404
1 12.7515 2.22703 12.2009
1 11.8057 12.3734 5.17573
96
 Atoms. Timestep: 14000
2 0.186003 8.32752 5.2005
2 3.63659 11.9763 11.8746
2 12.4746 3.96774 5.07988
2 7.25672 0.00959914 11.5928
2 11.8889 5.28772 9.81697
2 7.37845 12.7325 1.80424
2 12.4907 8.07683 8.29721
2 4.14477 12.2033 1.3916
2 11.2259 7.87615 6.55759
2 4.25565 10.1581 0.179651
2 0.0558679 3.36149 10.2062
2 7.31249 1.65833 12.9466
2 1.7446 7.40396 6.91207
2 8.35851 10.8143 13.1041
2 10.1722 4.69176 6.23283
2 4.7566 1.35403 0.0520057
2 10.6622 6.32992 4.14693
2 5.94983 10.6142 11.8277
2 2.35255 5.52728 4.9168
2 6.63695 3.20264 11.439
2 1.42034 6.4527 9.14438
2 5.96887 1.60285 1.63163
2 10.6053 6.35159 8.47678
2 6.71182 10.8828 2.30038
2 10.4636 9.17456 8.82383
2 3.70221 10.3471 2.58682
2 2.08067 3.89047 8.86318
2 9.00274 2.27243 2.48902
2 2.22195 8.77957 9.29871
2 9.5934 11.2753 2.03198
2 10.5807 3.78112 9.28047
2 3.27838 1.57228 2.79944
2 1.31795 3.38579 3.72522
2 9.14901 1.80365 10.9237
2 11.7069 9.03605 3.7049
2 3.47446 10.2427 10.4197
2 10.5045 3.33891 3.86106
2 3.75122 2.35656 11.2085
2 2.58186 8.59865 4.27363
2 8.64892 10.4256 10.7389
2 1.0582 11.2716 10.7929
2 1.789 0.238543 6.30925
2 12.676 2.73414 12.6443
2 11.0741 0.312119 6.36399
2 0.678896 0.495265 0.719109
2 0.350573 0.264627 8.73128
2 0.00405825 11.4125 0.0759796
2 0.181756 11.9284 5.12493
2 11.3396 1.40786 1.67004
2 10.4468 11.9267 8.77406
2 1.15783 10.698 2.36697
2 2.85203 1.47073 8.86271
2 1.04968 2.69455 1.91698
2 2.34793 11.8294 8.5298
2 11.6907 11.692 2.26091
2 10.8527 1.60423 8.66415
2 12.6452 0.403476 12.0467
2 1.32015 0.900264 4.01602
2 11.403 1.75128 10.6218
2 10.6822 10.9277 4.49527
2 11.6767 11.0308 10.6505
2 11.213 0.790447 4.08188
2 1.83146 1.93318 10.6125
2 2.56042 10.8501 4.6124
1 10.9216 7.86351 8.2006
1 4.91505 10.7957 1.64006
1 0.863898 4.98608 9.49261
1 7.68769 1.45862 1.56462
1 1.26911 7.93357 8.41432
1 8.40069 11.0902 1.36076
1 10.8465 4.95125 7.96047
1 4.3663 0.858876 1.5804
1 1.46114 4.30896 5.21701
1 7.64263 1.57127 11.4321
1 11.2821 7.86489 4.93455
1 4.46542 10.2017 11.9322
1 10.707 4.45245 4.78438
1 4.25284 1.07822 11.9064
1 1.72321 7.30541 5.18093
1 7.36785 11.2394 11.8653
1 10.5622 10.2619 2.85821
1 1.99297 10.4558 9.58677
1 1.85431 1.8863 3.01058
1 10.1311 2.35134 9.91274
1 2.41523 9.77726 3.45435
1 10.222 10.5652 9.95612
1 10.3821 1.80703 3.01326
1 3.08919 2.77707 9.73857
1 12.6234 1.99009 0.906683
1 11.6251 0.155917 8.10183
1 0.303512 11.8693 1.48649
1 1.95097 0.381724 7.91831
1 -0.034165 11.6191 11.9437
1 1.69776 12.295 4.82582
1 0.304731 2.12988 11.2144
1 11.4522 12.1841 5.02026
96
 Atoms. Timestep: 16000
2 12.2047 7.13989 4.57663
2 5.15656 12.5291 11.3278
2 12.2323 4.83851 5.57723
2 9.05814 12.5714 11.6889
2 12.7824 4.43941 7.97634
2 6.96636 -0.285211 0.772677
2 0.0654534 8.09215 8.73949
2 3.71633 13.1517 1.39723
2 11.0118 8.18416 6.4386
2 4.71795 10.96 13.3453
2 1.19502 3.9382 6.46906
2 8.61104 1.14424 -0.175739
2 0.998665 7.21052 6.82422
2 7.88863 10.8277 -0.0786268
2 10.2031 5.10688 6.42771
2 4.82645 1.33513 13.4766
2 10.201 6.62397 4.47019
2 6.66512 11.0732 11.6795
2 1.91516 5.97087 5.19922
2 7.01527 1.5832 11.8191
2 2.2151 6.08221 8.07453
2 5.75325 2.23847 1.25922
2 11.4858 6.27736 8.45924
2 5.43382 11.117 1.5135
2 10.8228 8.84522 9.49243
2 3.13349 10.4406 1.76064
2 2.40838 3.24762 8.8023
2 8.3905 1.2869 2.88033
2 2.36656 8.6713 9.18717
2 8.22992 10.9564 2.287
2 10.959 3.57782 8.87664
2 3.47354 2.19696 2.57708
2 1.42151 3.03378 4.70108
2 9.58785 2.2164 10.7045
2 10.2753 9.31285 3.56774
2 4.28407 10.3242 10.5171
2 9.75062 3.69451 4.31673
2 4.18459 1.75218 11.4913
2 1.60281 8.83376 4.08898
2 9.37247 10.5891 11.0849
2 1.6304 11.1761 11.1703
2 1.6015 0.169445 6.49435
2 12.8292 1.96111 -0.273807
2 10.8665 12.3962 6.9179
2 12.7772 0.320226 1.76989
2 0.0840028 0.0485021 8.41831
2 -0.234673 11.3604 -0.44592
2 12.5067 12.4081 4.68835
2 11.1372 2.32452 2.33036
2 10.8546 11.599 9.49133
2 0.989598 11.1949 1.91355
2 2.39824 0.951872 9.22672
2 1.10473 2.03681 1.94805
2 2.39111 11.1632 8.51305
2 11.2559 11.626 1.82088
2 11.5615 0.393039 9.60809
2 -0.123034 0.561459 11.3944
2 1.66105 0.469138 3.77091
2 12.1738 2.6806 10.8419
2 10.3028 11.2539 4.19713
2 12.1185 10.4011 11.5429
2 10.6814 1.13384 4.46667
2 1.89896 1.92312 11.3822
2 1.8395 11.0908 4.66447
1 11.3337 7.90251 8.08735
1 4.1386 11.3971 1.14431
1 1.53946 4.46379 8.11261
1 7.45381 1.20029 1.52103
1 1.57432 7.53439 8.59141
1 7.0797 11.4536 1.23603
1 10.7135 4.80609 8.09912
1 4.16379 1.55343 1.1929
1 0.731564 4.64283 5.11367
1 8.62174 1.25358 11.7533
1 10.7254 8.11187 4.90682
1 5.12721 11.0191 11.7648
1 10.6823 5.02221 4.86241
1 5.61162 1.05117 12.0597
1 0.911176 7.43453 5.236
1 8.13069 11.071 12.0916
1 9.827 10.6585 2.64786
1 2.66333 10.2838 9.8408
1 1.96376 2.05081 3.30933
1 10.9519 2.07238 9.49291
1 2.03387 10.5283 3.10625
1 10.8642 10.0831 10.5202
1 9.82141 2.22923 3.5717
1 3.08152 2.31131 10.1729
1 12.597 2.01856 1.53513
1 11.8523 12.3027 8.16714
1 -0.45065 11.8476 1.16588
1 1.69839 -0.374333 8.1501
1 0.26848 11.9778 11.871
1 0.999842 -0.431013 5.13497
1 0.0101995 1.92948 11.8618
1 11.087 12.6465 5.18365
96
 Atoms. Timestep: 18000
2 -0.0858987 7.79582 5.04136
2 4.22501 12.4485 11.761
2 12.5969 4.20308 4.91325
2 7.87427 0.110843 11.3914
2 12.0056 5.49646 9.16999
2 7.984 12.457 1.5157
2 12.566 8.29031 8.63633
2 4.16842 12.546 1.59324
2 10.9906 8.2248 6.55017
2 4.28357 10.6695 13.1082
2 2.34197 4.26028 6.51328
2 7.56787 1.87457 0.129395
2 1.76647 8.12082 6.67286
2 8.16607 10.93 -0.196913
2 10.8626 4.69911 6.93837
2 4.51531 1.41798 -0.138649
2 10.717 6.34793 4.96019
2 6.45713 10.8238 11.6626
2 2.18672 6.06716 4.84114
2 5.9938 1.57347 11.3182
2 1.6265 6.02064 7.49938
2 5.95918 0.987798 2.1279
2 10.1939 6.81395 8.57157
2 6.09505 10.6121 1.66041
2 10.8339 9.53212 8.92142
2 3.09803 10.3803 1.51305
2 2.65743 4.19286 9.44118
2 8.72867 1.46226 2.68962
2 2.17469 9.59882 8.46375
2 8.93119 10.4058 2.63685
2 9.85727 3.73792 9.07801
2 3.3528 2.10802 2.16319
2 2.35687 3.3633 4.5583
2 9.5197 2.05191 11.5578
2 10.5287 8.8055 3.87597
2 3.89919 10.2749 10.4942
2 10.4926 3.42325 4.15967
2 3.89351 1.89685 10.6445
2 2.30597 8.54888 3.65317
2 9.12883 10.3814 11.1126
2 0.949751 10.8261 10.6201
2 1.28784 12.7304 6.68666
2 12.7439 1.883 0.0128235
2 10.85 -0.0986258 6.61667
2 -0.0628381 12.6608 2.07286
2 12.5623 0.336371 7.6405
2 -0.0180789 11.5612 -0.104892
2 0.176354 -0.0802209 4.9418
2 11.3143 1.97529 1.86336
2 10.7698 11.5561 8.82442
2 0.795619 9.96697 1.95968
2 2.21616 1.52363 8.52468
2 1.19758 1.86813 2.41396
2 2.07663 11.684 8.84763
2 11.518 10.1098 1.70758
2 10.4046 1.11251 9.50791
2 0.00458295 0.279125 11.9518
2 2.48328 0.588012 4.30122
2 11.7387 2.62193 11.0326
2 10.7478 11.6809 3.97418
2 11.7595 10.8635 11.1346
2 10.7988 1.16952 4.34492
2 1.10669 2.0442 10.6015
2 1.69692 11.11 4.10689
1 11.0497 8.04065 8.2117
1 4.62462 10.9077 1.11559
1 2.58835 4.81034 7.89534
1 7.50936 1.03398 1.58276
1 1.33604 7.9097 8.32447
1 7.61765 10.7461 1.27869
1 10.4201 5.23256 8.50794
1 4.45536 1.25996 1.46513
1 1.36485 4.45833 5.01446
1 7.93125 1.55511 11.9324
1 11.2203 7.96936 4.8597
1 4.89228 10.8381 11.5472
1 10.9769 4.78289 5.26809
1 4.4448 1.04351 11.9106
1 1.7711 7.723 5.0287
1 7.99313 11.5678 12.0473
1 10.3482 10.2666 3.0031
1 2.36397 10.4604 9.61178
1 2.37645 2.22093 3.56162
1 10.3003 2.50944 10.2637
1 2.10464 9.99367 3.02841
1 10.5741 10.3094 10.1706
1 10.3406 2.13095 3.15399
1 2.55928 2.54694 10.0015
1 -0.0914742 1.12245 1.57248
1 11.2219 0.135803 8.44006
1 12.5663 11.0672 1.36082
1 1.39942 0.112039 8.09518
1 -0.0352391 11.5422 11.986
1 1.60908 12.3707 5.08305
1 12.7481 1.88968 11.8678
1 11.378 -0.143694 4.96456
96
 Atoms. Timestep: 20000
2 12.6369 7.84186 4.55044
2 4.47199 0.161269 11.901
2 12.5032 4.3438 4.79285
2 7.32765 0.559568 11.9458
2 12.6596 4.94636 8.76047
2 8.69704 0.676428 1.13267
2 11.7854 8.411 8.2124
2 4.93119 12.637 2.41666
2 10.2906 8.24129 6.15886
2 4.90572 11.4454 0.0826042
2 1.55238 4.55437 6.85119
2 7.52696 2.27194 0.142228
2 1.54998 7.75322 6.58176
2 8.64794 11.3243 13.3081
2 11.1398 4.06171 6.41048
2 4.9468 1.97425 0.481612
2 10.7461 6.03215 4.77257
2 6.4788 11.4539 11.5595
2 1.02067 6.29838 5.04384
2 5.91889 2.32782 11.8819
2 0.865916 6.83224 8.87629
2 6.07096 2.55664 2.19049
2 10.5555 6.40815 7.78261
2 7.36753 10.908 1.4844
2 9.66933 9.02742 9.01599
2 4.82625 10.2465 2.86221
2 1.85474 3.78552 9.33016
2 9.21864 2.60007 2.61998
2 1.40321 9.35254 8.98583
2 9.6039 10.4814 2.03501
2 10.0875 3.92113 9.13213
2 3.65883 1.99111 3.11069
2 1.60492 3.77097 3.73659
2 8.87797 2.4474 11.2915
2 10.5238 8.63838 3.74828
2 3.37093 10.8552 11.449
2 11.0875 2.71851 4.59032
2 2.9322 1.93503 11.87
2 2.27823 8.77794 3.90547
2 9.47129 11.1373 11.2581
2 1.03972 10.1301 11.4143
2 2.09634 0.314733 6.60999
2 11.9194 1.59559 13.3423
2 10.9636 12.4166 6.6053
2 0.0199582 12.1927 0.413951
2 0.312443 12.4952 7.8543
2 -0.0443179 9.98783 13.1105
2 0.0803371 12.0988 4.30257
2 11.4851 0.766705 2.17518
2 10.7159 11.1138 8.56445
2 2.13022 10.1094 1.6516
2 1.60151 1.28777 9.37376
2 1.00847 1.74989 1.81061
2 2.65081 11.5632 9.23264
2 12.3615 9.50098 1.46634
2 10.433 1.20579 8.8732
2 12.1842 12.2606 11.3888
2 1.86976 1.03704 4.053
2 11.1042 2.14609 11.2542
2 10.9839 10.7993 3.80552
2 10.8902 9.77807 11.1943
2 10.941 0.511524 4.45784
2 0.790222 2.14335 11.3158
2 2.00224 11.2597 4.09168
1 10.2619 8.32973 7.59641
1 5.58553 11.3644 1.66024
1 1.45404 5.14415 8.52348
1 7.93937 2.3879 1.66214
1 0.392897 8.21568 8.06768
1 8.87797 11.9429 1.2285
1 10.9917 4.89304 8.06842
1 4.71575 1.4826 2.17611
1 1.24439 4.58176 5.13648
1 7.45309 2.06186 12.0687
1 10.9619 7.54539 4.87285
1 4.84028 11.6114 11.9234
1 10.7307 4.47109 4.98186
1 4.5784 1.59037 12.4894
1 1.38629 7.99709 4.93982
1 8.17122 11.8106 11.7269
1 10.858 9.76259 2.53364
1 2.31517 10.1899 10.0991
1 1.92344 2.42459 2.89405
1 10.0602 2.46104 9.88682
1 2.91237 10.0939 3.27432
1 10.1229 10.3416 9.86259
1 10.5206 1.83054 3.36469
1 2.15613 2.46418 10.3029
1 -0.119423 0.7832 1.02232
1 11.5023 12.6731 8.29015
1 0.776838 10.5569 0.807137
1 1.81634 0.0709431 8.20748
1 12.4113 10.5926 11.5195
1 1.43116 12.5581 5.03936
1 12.4318 1.06001 11.7681
1 11.3942 11.9682 4.69482
96
 Atoms. Timestep: 22000
2 12.6389 8.02734 5.04491
2 4.7033 0.454661 12.1457
2 -0.05786 4.95245 4.44431
2 7.86196 12.917 11.2239
2 0.623786 5.22876 8.50111
2 8.7265 12.4153 1.13493
2 -0.183155 7.66903 8.67572
2 4.53717 -0.0563871 1.98343
2 10.7249 7.14611 7.44238
2 4.56928 10.6572 0.0863435
2 2.19654 4.75809 5.96995
2 8.53145 1.38964 12.7068
2 1.85605 7.79694 6.9747
2 8.00071 10.8446 12.897
2 11.8816 4.44711 6.91032
2 4.22326 2.078 -0.194365
2 11.1666 6.21546 5.09642
2 5.86313 11.4163 11.7485
2 1.20876 6.46173 4.36766
2 6.51079 2.40971 11.0024
2 2.63936 6.16363 8.42227
2 6.41754 1.87416 1.42558
2 11.5781 5.88454 9.16206
2 6.30869 10.6976 1.40942
2 10.457 9.11667 8.97828
2 3.93873 10.2334 2.5117
2 2.31901 3.84218 8.86654
2 8.73573 1.90754 2.14299
2 2.10942 9.43322 9.58715
2 9.37196 10.588 2.02382
2 11.0118 3.94904 9.44533
2 3.51118 2.40344 2.23761
2 2.31264 4.06247 3.28117
2 8.85997 2.61668 10.7693
2 10.3143 8.92202 5.21695
2 3.55253 11.3278 10.9074
2 10.6883 3.52918 4.18918
2 3.55419 2.07299 10.5275
2 2.15169 8.71174 4.42004
2 8.09277 10.2147 10.4752
2 1.11166 10.433 11.1234
2 1.6151 0.253659 6.40825
2 -0.498828 0.865777 13.5595
2 10.5173 12.4114 6.73937
2 0.0302361 12.5098 1.71758
2 12.3409 0.142253 8.26976
2 12.6802 10.998 13.494
2 12.4114 12.3609 5.27337
2 11.4941 1.9759 2.29352
2 10.2699 11.1701 9.10723
2 1.49483 10.1532 1.96185
2 2.12066 1.22348 8.14219
2 1.07785 2.53412 1.70071
2 1.07661 11.8614 9.38944
2 11.5308 9.91384 2.43472
2 10.118 1.22377 9.10938
2 12.6967 12.4313 10.9563
2 1.56966 1.31831 3.84364
2 11.2235 1.6149 11.2192
2 10.8941 11.3444 4.21479
2 11.0752 9.82132 11.0534
2 10.7047 1.19961 4.48282
2 1.06944 1.78278 10.4171
2 1.37045 11.275 3.7866
1 11.0117 7.51404 9.01276
1 4.87416 11.3135 1.72933
1 2.04934 4.82288 7.61713
1 8.10745 1.28408 0.812158
1 1.81928 7.93038 8.76447
1 7.895 10.9168 1.04935
1 11.9579 4.70858 8.44865
1 4.82151 1.47326 1.61411
1 1.45411 4.83381 4.63648
1 7.71711 1.55352 11.1122
1 11.2208 7.65488 5.76618
1 4.24439 11.8962 12.2565
1 11.5655 4.68024 5.36541
1 4.92358 2.27488 11.8383
1 1.23814 7.78617 5.39725
1 7.59336 11.4529 11.4026
1 10.1716 9.95072 3.59977
1 2.28312 10.9592 10.1295
1 2.08031 2.54012 3.00525
1 10.3264 2.31375 10.2176
1 2.47904 9.81037 3.26196
1 9.72699 10.2433 10.0525
1 10.139 2.21544 3.32051
1 2.20739 2.43076 9.47638
1 12.8393 1.25098 1.5646
1 10.6019 12.5578 8.45974
1 0.0680491 10.8321 1.60288
1 1.21114 0.0463878 8.04069