96
 Atoms. Timestep: 0
2 0 7.95642 4.74695
2 4.63304 0 11.358
2 0 4.63304 4.74695
2 7.95642 0 11.358
2 0 4.63304 8.47514
2 7.95642 0 1.8641
2 0 7.95642 8.47514
2 4.63304 0 1.8641
2 10.7421 8.43088 6.61105
2 4.15858 10.7421 0
2 1.84736 4.15858 6.61105
2 8.43088 1.84736 0
2 1.84736 8.43088 6.61105
2 8.43088 10.7421 0
2 10.7421 4.15858 6.61105
2 4.15858 1.84736 0
2 10.5201 6.29473 5.04003
2 6.29473 10.5201 11.6511
2 2.06934 6.29473 5.04003
2 6.29473 2.06934 11.6511
2 2.06934 6.29473 8.18207
2 6.29473 2.06934 1.57102
2 10.5201 6.29473 8.18207
2 6.29473 10.5201 1.57102
2 10.1594 8.65935 9.20274
2 3.93011 10.1594 2.59169
2 2.43004 3.93011 9.20274
2 8.65935 2.43004 2.59169
2 2.43004 8.65935 9.20274
2 8.65935 10.1594 2.59169
2 10.1594 3.93011 9.20274
2 3.93011 2.43004 2.59169
2 2.43004 3.93011 4.01936
2 8.65935 2.43004 10.6304
2 10.1594 8.65935 4.01936
2 3.93011 10.1594 10.6304
2 10.1594 3.93011 4.01936
2 3.93011 2.43004 10.6304
2 2.43004 8.65935 4.01936
2 8.65935 10.1594 10.6304
2 0 10.703 0
2 1.88643 0 6.61105
2 0 1.88643 0
2 10.703 0 6.61105
2 0 0 1.872
2 0 0 8.48305
2 0 0 11.3501
2 0 0 4.73905
2 11.2706 2.31295 2.18973
2 10.2765 11.2706 8.80078
2 1.31887 10.2765 2.18973
2 2.31295 1.31887 8.80078
2 1.31887 2.31295 2.18973
2 2.31295 11.2706 8.80078
2 11.2706 10.2765 2.18973
2 10.2765 1.31887 8.80078
2 1.31887 10.2765 11.0324
2 2.31295 1.31887 4.42131
2 11.2706 2.31295 11.0324
2 10.2765 11.2706 4.42131
2 11.2706 10.2765 11.0324
2 10.2765 1.31887 4.42131
2 1.31887 2.31295 11.0324
2 2.31295 11.2706 4.42131
1 11.0086 7.83654 8.10972
1 4.75292 11.0086 1.49867
1 1.5809 4.75292 8.10972
1 7.83654 1.5809 1.49867
1 1.5809 7.83654 8.10972
1 7.83654 11.0086 1.49867
1 11.0086 4.75292 8.10972
1 4.75292 1.5809 1.49867
1 1.5809 4.75292 5.11238
1 7.83654 1.5809 11.7234
1 11.0086 7.83654 5.11238
1 4.75292 11.0086 11.7234
1 11.0086 4.75292 5.11238
1 4.75292 1.5809 11.7234
1 1.5809 7.83654 5.11238
1 7.83654 11.0086 11.7234
1 10.1088 10.1088 3.30552
1 2.48067 10.1088 9.91657
1 2.48067 2.48067 3.30552
1 10.1088 2.48067 9.91657
1 2.48067 10.1088 3.30552
1 10.1088 10.1088 9.91657
1 10.1088 2.48067 3.30552
1 2.48067 2.48067 9.91657
1 0 1.60471 1.57853
1 10.9848 0 8.18958
1 0 10.9848 1.57853
1 1.60471 0 8.18958
1 0 10.9848 11.6436
1 1.60471 0 5.03252
1 0 1.60471 11.6436
1 10.9848 0 5.03252
96
 Atoms. Timestep: 2000
2 12.54 8.50115 4.84291
2 3.52132 12.144 12.427
2 12.4967 5.04554 4.23598
2 7.26048 0.127802 11.545
2 -0.370398 4.81072 8.87834
2 8.5932 0.734639 0.918178
2 0.216969 7.11991 9.01412
2 5.38794 0.231494 1.62473
2 11.7914 7.87496 6.93691
2 5.05556 10.8058 13.5873
2 1.4156 3.88839 6.64368
2 7.7014 2.36322 12.6589
2 1.46616 7.41965 6.7868
2 8.30209 11.8022 12.9821
2 11.2207 4.19526 6.75254
2 3.93885 2.06677 0.0351459
2 10.7727 6.47943 4.38273
2 5.94474 11.4799 11.235
2 1.37621 6.35615 4.98257
2 5.56084 1.59593 12.2213
2 2.04891 5.24821 7.99587
2 6.02701 2.86433 1.14479
2 11.128 6.29623 8.56044
2 7.2324 11.0372 1.36875
2 11.0163 9.21758 10.3533
2 4.07069 10.3956 1.8473
2 1.71841 2.99083 9.71497
2 8.61069 3.0305 2.54105
2 2.60977 8.36811 8.88552
2 8.93423 11.5154 2.73879
2 10.1097 3.914 9.19346
2 3.56825 2.27073 2.52513
2 1.78172 3.86692 3.55279
2 8.29461 2.10508 10.2506
2 9.83257 9.07863 4.51879
2 4.32369 9.84537 10.8968
2 10.5816 3.77583 3.90896
2 3.22462 2.00976 11.0514
2 2.30974 8.9858 4.16806
2 8.67786 11.251 10.1237
2 0.346856 10.9597 0.143483
2 1.4551 12.3141 6.37429
2 11.8952 0.810946 -0.280716
2 11.4482 0.243909 6.76187
2 12.1319 12.1027 1.8183
2 0.141414 -0.514839 8.51976
2 0.795601 12.7455 10.7209
2 13.0074 0.362453 4.88452
2 11.3975 1.94371 1.62653
2 10.5805 11.4711 8.9276
2 1.14397 9.98285 2.39976
2 2.21114 0.576161 8.93211
2 1.29255 1.38442 2.00428
2 2.99589 10.8177 8.77138
2 11.3352 10.1884 2.64541
2 10.8378 1.24794 8.95581
2 2.00401 10.7671 11.1157
2 2.42627 1.21304 4.02448
2 10.8321 2.4758 11.4346
2 10.5476 11.6732 4.50459
2 12.0395 11.4599 10.5351
2 10.6642 1.4254 4.11206
2 0.568015 2.04785 11.3732
2 2.19164 11.7715 3.72704
1 11.3983 8.03239 8.94553
1 5.45322 11.4785 1.22042
1 1.04671 3.71601 8.45534
1 7.73859 2.28309 0.937956
1 1.51611 6.78629 8.14423
1 8.73537 11.8508 1.2245
1 11.1384 4.68018 8.333
1 4.68877 1.91977 1.41395
1 1.0918 4.55842 5.05548
1 7.01085 1.5319 11.3372
1 10.9533 8.09461 5.14936
1 4.65199 10.7661 12.0035
1 11.0278 4.74173 4.91133
1 3.74636 1.07448 12.4014
1 0.960286 7.93608 5.24694
1 7.71789 11.5129 11.2445
1 9.89195 10.3804 3.64138
1 2.98247 9.56524 9.86864
1 2.15155 2.46084 3.06022
1 9.98608 2.45166 10.0617
1 3.0101 10.0122 3.16777
1 10.4892 10.7298 10.4092
1 10.3724 2.70228 2.71718
1 1.65796 1.39198 10.2954
1 12.7206 0.835794 1.30098
1 11.3129 -0.00122735 8.26436
1 12.7579 10.4382 1.60646
1 2.00879 12.0886 8.147
1 0.611152 11.3719 11.9073
1 1.41738 -0.361688 4.81872
1 11.9552 1.79028 12.0282
1 11.1958 0.148986 4.82872
96
 Atoms. Timestep: 4000
2 0.101618 7.95191 4.29734
2 4.41575 0.244482 11.6596
2 0.237046 4.76759 5.27493
2 7.5262 0.196819 12.2228
2 12.3306 4.64375 9.09193
2 8.66755 9.67194 2.86599
2 12.9674 7.65685 8.08423
2 5.02025 -0.00681089 1.30436
2 11.4201 7.61287 6.17971
2 4.20412 11.308 13.4162
2 1.71945 3.899 7.13487
2 8.33425 2.80601 13.3227
2 1.81778 8.05945 6.41855
2 6.9006 7.94356 13.5608
2 10.992 4.74745 7.04225
2 4.55609 2.01116 -0.212451
2 11.2755 5.88166 4.51779
2 6.05156 11.5908 11.0314
2 2.23587 6.09374 4.24245
2 6.04098 2.8882 11.8289
2 1.38846 6.33222 8.54392
2 7.00409 1.91939 1.9624
2 10.578 6.90827 8.47481
2 5.4045 9.89115 0.736485
2 10.3783 9.13402 8.67384
2 3.69399 10.3791 2.45023
2 1.46998 3.81703 9.8436
2 9.88258 1.78423 2.21145
2 1.60109 8.45452 9.62184
2 7.36689 10.1998 12.3449
2 9.87932 4.31358 9.43489
2 4.12115 2.14081 2.64876
2 2.0932 2.98799 4.7235
2 9.35761 2.42492 11.0721
2 10.6776 8.16026 3.6063
2 3.39193 10.2518 11.42
2 10.8785 3.31774 4.43906
2 3.26546 2.56025 10.8512
2 2.03935 8.65082 3.80923
2 8.58869 10.9812 10.2724
2 -0.152191 10.6582 0.00484517
2 1.96022 -0.0162212 6.46703
2 0.991929 3.23461 0.210448
2 10.853 12.7363 6.6066
2 12.7112 0.171528 1.16881
2 -0.267028 0.226118 8.45174
2 10.7106 9.74892 12.4984
2 -0.0816416 12.7523 5.46234
2 12.3125 2.44247 2.23355
2 11.6125 11.5288 9.24974
2 1.21888 10.6855 1.87896
2 1.56804 1.14455 9.60014
2 1.48655 1.76905 2.21744
2 1.6815 11.5113 9.60483
2 11.1507 11.1917 2.1191
2 10.5088 1.5879 8.53835
2 0.471145 9.9315 11.5399
2 1.63004 0.709466 4.05057
2 12.2161 5.25136 12.6387
2 10.6064 10.954 4.36155
2 11.4338 9.81564 10.3202
2 10.9862 0.45942 4.0778
2 0.652799 3.12449 11.701
2 1.6321 10.6647 4.45865
1 11.3583 8.10315 7.73678
1 4.54634 11.1755 1.27611
1 0.966525 4.62892 8.59739
1 8.81898 2.12722 1.06234
1 1.5254 7.87737 8.13832
1 6.24059 9.24095 12.8166
1 10.9072 5.21207 8.49537
1 5.30774 1.66201 1.20609
1 1.67274 4.27871 5.66609
1 7.89103 2.07869 11.6652
1 11.5375 7.49873 4.53149
1 4.49537 11.5777 11.5432
1 11.5134 4.60412 5.49027
1 4.58756 1.89186 11.8551
1 1.94985 7.63962 4.90893
1 7.48654 11.6231 11.4079
1 10.4601 9.89829 3.09175
1 1.98307 9.94562 10.5503
1 2.67398 1.98188 3.43943
1 10.127 2.77637 9.71785
1 2.28579 10.0947 3.04013
1 10.0204 10.4478 9.46474
1 11.0741 1.96255 3.45839
1 1.59335 2.33384 10.6398
1 0.551054 1.58138 1.06109
1 11.2785 -0.0691476 8.0157
1 -0.366376 11.3731 1.48998
1 1.38002 -0.24365 8.3778
1 12.1575 10.7158 11.8715
1 1.36707 12.5334 5.08044
1 0.867602 4.47532 12.6754
1 11.4224 12.1349 4.99551
96
 Atoms. Timestep: 6000
2 0.0251931 8.05278 4.24194
2 5.17941 0.248383 11.9504
2 12.3273 3.49253 4.6646
2 7.90457 0.0649449 11.6038
2 12.7741 5.62124 8.03912
2 9.12331 9.33027 2.16235
2 -0.123012 8.57611 8.66896
2 5.00495 12.4796 1.24838
2 11.4132 8.73377 6.43596
2 4.23548 11.0417 -0.229812
2 0.948757 4.28091 6.1993
2 8.44872 1.52394 13.1065
2 2.63672 8.3258 5.80006
2 7.12896 8.93086 0.557127
2 11.4437 4.48597 6.9398
2 4.6174 2.06183 13.3215
2 10.6657 6.21215 4.91579
2 5.97397 10.6478 11.8365
2 1.87649 1.84221 5.31933
2 6.27467 2.63314 11.8983
2 2.29995 6.07961 7.79893
2 7.10247 0.732531 0.900382
2 10.9429 6.74586 8.26113
2 6.25792 10.152 2.09487
2 10.1958 8.9192 9.1783
2 3.73153 11.4499 2.57338
2 2.13681 4.02428 8.70302
2 8.96533 1.8197 2.81675
2 2.69251 8.94319 8.87613
2 8.00623 10.9849 -0.132522
2 10.3387 4.17074 9.17858
2 4.95115 2.27651 2.28274
2 2.27253 3.31144 3.95359
2 8.61147 2.03461 10.2956
2 10.8491 8.67819 3.7643
2 3.54487 10.4269 10.4422
2 10.2835 3.35265 4.66058
2 3.52548 2.26943 10.3301
2 2.25946 9.6013 3.51222
2 8.36482 10.4334 11.1522
2 12.5404 11.5249 13.1425
2 1.2514 12.6696 6.27698
2 12.6357 2.90397 0.0592687
2 9.83877 11.9114 7.22582
2 12.6867 0.0787777 1.53095
2 11.6677 0.488716 8.40665
2 12.1833 8.4117 12.3785
2 12.3319 12.1995 6.2807
2 11.5179 2.28086 2.87457
2 9.52564 11.5983 9.20238
2 1.09396 11.1824 1.66413
2 1.07646 1.14053 8.47324
2 5.07357 4.09865 4.38585
2 0.761998 11.2161 8.70479
2 11.197 10.6503 1.75356
2 9.75074 1.38054 7.97219
2 0.557541 9.84119 10.6326
2 3.89208 1.70418 5.14925
2 0.0651982 4.87265 11.9924
2 10.0438 10.8527 4.66946
2 11.0766 10.9189 11.0409
2 10.7911 0.546549 5.22619
2 1.29781 2.33865 11.433
2 3.0003 11.8996 4.45493
1 11.1482 8.26254 8.03151
1 4.75443 10.94 1.43039
1 1.08359 4.86355 7.7937
1 8.49565 1.4273 1.21377
1 2.70524 7.54706 7.72644
1 7.73187 10.0642 1.36875
1 11.0472 5.17618 8.26676
1 5.36049 1.11386 1.00285
1 1.12935 3.32874 5.04728
1 7.80509 1.85632 11.6592
1 11.3296 7.76137 5.03472
1 4.407 11.3834 11.9251
1 11.1565 4.65845 5.38506
1 4.68913 1.87011 11.6521
1 1.51412 8.96484 4.57152
1 7.30346 11.3257 11.9704
1 10.465 10.0609 3.10162
1 1.86832 10.349 9.81984
1 4.09042 2.90868 3.80311
1 9.39816 2.92023 9.30198
1 2.15156 11.2415 3.0241
1 9.78641 10.3535 10.3254
1 10.3417 1.89146 3.85829
1 2.06331 2.02684 9.53207
1 12.2104 1.9102 1.49308
1 10.1405 -0.0300169 8.36393
1 12.4301 11.4984 1.11979
1 0.417986 12.7043 7.92599
1 12.3984 10.0355 11.8566
1 2.67619 0.251446 5.38252
1 0.413326 3.42051 12.0735
1 10.6632 11.7156 5.83917
96
 Atoms. Timestep: 8000
2 0.131166 8.15639 4.93586
2 4.08025 12.1735 11.6447
2 0.420379 3.78745 3.05374
2 8.21359 -0.295801 11.814
2 0.155804 4.45726 8.04653
2 8.5645 10.1696 2.58838
2 1.11863 8.7894 8.19439
2 5.33504 12.3816 1.46493
2 11.8358 9.23478 6.67303
2 4.36383 10.564 0.453844
2 0.908402 4.95495 6.1798
2 8.17724 1.41571 0.120246
2 2.52458 8.21093 6.35394
2 6.9175 7.5398 1.59226
2 10.3881 4.01087 6.14045
2 4.01587 1.18077 13.2527
2 10.8765 6.66518 4.59443
2 6.06211 10.6605 11.9424
2 1.00469 2.41349 5.14733
2 6.10535 1.39834 11.8122
2 2.23269 6.63144 8.3426
2 6.00369 1.66534 1.59778
2 11.5149 6.90843 8.00188
2 5.85292 9.72421 1.92896
2 10.6235 8.70951 9.29006
2 3.7204 11.0423 2.92301
2 2.40279 4.4647 9.36255
2 7.85 2.11906 3.42957
2 3.78851 9.18104 8.88984
2 8.06009 9.44446 0.00822535
2 10.3554 3.23471 8.25403
2 3.80976 2.19407 2.69416
2 2.72894 4.00173 3.68134
2 8.40663 1.84539 10.5279
2 10.0557 9.51187 4.37235
2 3.79134 10.2181 11.0007
2 9.34786 4.13381 4.16326
2 4.21259 2.03336 10.0903
2 2.00149 9.61184 3.55903
2 8.58879 10.1805 11.4006
2 0.0542268 10.4185 13.1382
2 1.49242 12.1999 6.56984
2 11.9771 2.89709 0.287267
2 10.7276 12.0693 6.62243
2 10.9722 0.312706 1.57035
2 12.2415 0.114638 8.1998
2 -0.0501349 7.93566 11.2222
2 0.0486097 12.9905 4.84008
2 11.7314 2.91934 3.02424
2 10.61 11.6299 9.36663
2 0.998981 11.7669 1.90753
2 2.12766 1.36217 8.16109
2 5.68169 3.72163 4.02988
2 2.48113 11.9109 8.77288
2 11.7519 10.413 2.32414
2 10.1718 1.12455 9.30133
2 1.6626 10.1797 10.6431
2 3.46232 0.889413 5.28625
2 11.1028 2.59017 10.854
2 10.8156 11.8258 3.66259
2 11.3806 10.4786 10.9269
2 10.7183 1.68994 4.51345
2 0.641201 2.93659 10.3458
2 2.0719 12.8026 3.86594
1 12.1352 8.45397 8.12504
1 4.96689 10.9531 1.95393
1 1.36978 5.36871 8.00452
1 7.51392 1.62164 1.75919
1 2.51485 8.00367 7.99381
1 7.67387 9.16595 1.58835
1 11.5573 4.01786 7.30007
1 4.44538 1.10307 1.46223
1 1.33263 3.9972 4.488
1 7.73661 1.363 11.8239
1 11.1742 8.44139 5.33648
1 4.50965 10.8322 12.2067
1 9.83549 5.42991 5.13971
1 4.72204 0.977349 11.3674
1 1.65966 8.19388 4.59571
1 7.61698 11.0613 12.3582
1 10.1741 10.3176 3.07777
1 2.9433 10.5393 9.62467
1 4.27044 3.25185 4.13878
1 9.85416 2.63195 9.6692
1 2.16865 11.2195 3.15222
1 9.99577 10.4404 10.2121
1 9.36518 2.48828 4.02637
1 2.38341 2.49236 9.91815
1 11.352 2.0956 1.61009
1 10.6997 0.194543 8.13113
1 11.9538 11.4955 1.02345
1 1.12405 12.9081 8.13868
1 0.197551 9.58081 11.4099
1 1.46059 0.785468 5.40589
1 12.291 2.92296 11.8973
1 10.8828 0.00145721 5.09325
96
 Atoms. Timestep: 10000
2 11.804 7.40088 4.37501
2 4.98324 12.5341 11.3637
2 12.4785 4.81804 4.24429
2 8.49118 12.4008 11.9014
2 12.4216 4.31065 8.40872
2 8.55113 10.6632 2.54625
2 12.4727 7.95545 7.75115
2 5.08387 -0.0587203 1.61763
2 10.2953 8.03278 6.09459
2 4.39304 10.819 0.0720706
2 0.862148 4.95651 6.25264
2 8.02831 1.87455 0.23813
2 1.29551 5.95443 3.8419
2 7.13433 8.33059 1.25567
2 11.1133 4.99608 6.63225
2 4.07671 1.37895 13.1819
2 10.1435 6.1588 4.94184
2 6.26861 10.9495 11.5178
2 1.2087 2.48599 5.11159
2 6.67328 1.20744 11.3633
2 1.91781 6.26575 7.82412
2 5.7735 2.36395 1.23672
2 10.7482 6.48776 8.53679
2 5.885 10.2531 2.15979
2 10.6091 9.20238 8.68508
2 3.1303 10.4931 2.41145
2 1.6828 3.49499 8.4828
2 8.60314 2.16278 2.65835
2 2.39992 8.93098 9.00602
2 7.49291 10.0638 13.2432
2 10.5322 3.95312 9.81443
2 3.87549 2.58048 2.06046
2 2.66212 3.95451 3.93142
2 9.39698 2.1831 11.0603
2 10.2219 9.25181 3.90778
2 3.75998 10.2051 10.6231
2 10.0232 3.3775 4.88746
2 3.95917 2.20937 10.6707
2 0.653384 9.03329 2.85374
2 8.73203 9.86166 11.0075
2 12.1941 11.5405 13.1376
2 2.01738 -0.0633914 6.29073
2 0.648372 2.77317 0.630456
2 11.3126 0.721737 7.09636
2 12.2059 0.75123 1.65079
2 0.330375 12.244 8.03248
2 0.170387 9.12901 12.1289
2 0.22057 0.0919751 5.24809
2 1.66598 1.18793 2.72573
2 10.7616 11.3702 9.40361
2 0.585684 10.9602 1.99482
2 1.99098 1.30797 8.92304
2 5.15178 3.63291 4.97507
2 2.31261 11.9022 8.83834
2 10.9149 11.1584 1.84465
2 11.843 1.50454 9.32712
2 0.756019 10.3406 10.4951
2 3.3179 1.60434 4.68707
2 11.7443 3.08835 11.6924
2 11.0695 11.8791 4.0594
2 11.6161 10.2132 10.9604
2 10.0085 0.656245 4.9697
2 1.479 2.81259 11.1965
2 1.58738 11.8064 4.30806
1 10.587 7.73249 7.71243
1 4.31879 11.0686 1.80743
1 1.04433 4.88863 7.99401
1 7.40965 2.72893 1.47511
1 1.56151 7.82047 8.24016
1 7.38261 10.0513 1.40263
1 10.8094 5.02535 8.28197
1 4.44422 1.43938 1.15235
1 1.2649 4.29989 4.68193
1 8.12206 1.42022 12.2085
1 10.4318 8.02514 4.72549
1 4.74983 10.7678 11.9222
1 10.7897 4.71245 4.9619
1 4.9469 1.29307 11.4619
1 0.450936 7.31999 3.54018
1 7.90059 10.8596 11.9035
1 10.0403 10.7031 3.61894
1 2.41435 10.4412 9.79061
1 3.97065 2.94215 3.78172
1 10.9953 2.61177 10.4345
1 1.77667 10.496 3.1601
1 10.2463 9.92506 10.1027
1 9.22053 1.97861 4.21257
1 2.40931 2.69357 9.59925
1 0.366377 1.82676 2.05484
1 11.8657 -0.0912402 8.69495
1 12.2057 11.8363 1.1656
1 1.75219 0.167397 7.71829
1 -0.0439395 10.6594 11.9389
1 1.76389 1.07467 4.59269
1 0.355115 2.79016 12.2519
1 11.3925 0.077967 5.373
96
 Atoms. Timestep: 12000
2 4.05729 10.7235 3.92059
2 4.27588 0.66194 11.4447
2 0.794621 3.69714 6.12101
2 7.30568 0.307799 11.9604
2 -0.122817 4.89514 8.86595
2 8.35546 9.17251 1.70566
2 11.9848 8.26538 7.79406
2 4.37246 0.173196 1.84519
2 10.2107 8.42732 6.36761
2 4.50695 11.9244 13.0066
2 2.21149 5.72718 7.71958
2 8.66737 2.25333 0.346999
2 1.71124 6.58249 4.84625
2 6.22604 8.64276 13.2198
2 11.494 3.48108 7.73456
2 4.98543 1.94846 13.2083
2 12.6263 8.4026 5.09229
2 6.21239 11.3122 11.2012
2 0.169569 12.5378 4.54591
2 6.46367 2.42315 11.9031
2 0.388436 7.24469 9.80589
2 6.49765 1.98085 2.17149
2 10.6682 6.20693 8.56642
2 5.95304 10.7155 1.4966
2 9.63187 9.10528 8.8897
2 2.95906 10.8292 1.93414
2 2.10589 4.36668 9.42311
2 9.70164 2.43522 2.33144
2 1.89155 9.47901 8.44726
2 7.77913 10.7866 -0.226218
2 10.5591 3.46482 9.81352
2 4.06406 3.22061 2.12179
2 3.02329 4.26566 5.37684
2 9.01083 1.95827 11.1612
2 10.3467 7.96521 3.34048
2 3.36985 10.9893 10.4183
2 11.654 2.22064 4.77536
2 3.85228 2.12696 10.1083
2 2.2473 9.85248 4.88485
2 8.80573 11.8563 10.8147
2 12.6864 10.031 -0.0992837
2 0.916577 1.17283 5.92085
2 0.428731 0.920254 13.2811
2 10.7027 12.3991 6.03219
2 12.5949 12.2442 1.95941
2 12.7657 0.221489 7.82712
2 0.493239 9.41784 10.7934
2 9.0803 10.6002 5.71092
2 0.478703 1.3637 3.0659
2 10.5511 12.1748 9.25452
2 1.01632 10.3537 2.79705
2 1.98225 1.54333 8.40067
2 4.15258 1.82458 6.16093
2 2.32531 12.254 8.01311
2 11.0043 10.2481 1.152
2 10.645 1.1222 8.75934
2 12.7624 12.1136 11.5268
2 2.42429 2.04613 3.74794
2 11.7615 1.56825 11.3184
2 9.95968 10.6896 2.98746
2 10.9478 9.97769 11.0726
2 10.0932 0.224814 3.4555
2 1.50095 1.27754 10.6517
2 2.43569 12.6752 3.8528
1 10.3511 7.95899 7.94874
1 4.3277 11.7855 1.22705
1 1.08514 5.93748 9.06125
1 8.19311 2.48934 1.91011
1 0.297515 8.96901 8.83262
1 6.93534 9.6573 0.723135
1 11.3151 4.60496 8.91687
1 4.90234 1.61295 1.41613
1 1.96901 5.05753 6.15347
1 7.98935 1.6671 12.4022
1 10.9978 8.2753 4.84963
1 4.628 12.1981 11.1037
1 12.1839 2.90835 6.17952
1 4.98733 2.1907 11.4922
1 1.25255 8.21713 5.08578
1 7.63828 11.7447 12.0796
1 10.0914 9.11072 2.13464
1 2.55286 10.9848 8.90302
1 3.57493 2.75352 4.93661
1 10.5618 1.99218 10.1673
1 2.43186 10.9268 3.62158
1 9.76364 10.7647 9.61962
1 10.9626 1.70951 3.15968
1 2.26901 2.39295 9.69324
1 0.109121 0.857789 1.48262
1 11.0428 -0.258113 7.65451
1 12.6272 10.6539 1.61815
1 1.11825 0.68671 7.46211
1 12.3917 10.1177 11.9046
1 1.32106 0.805188 4.14405
1 0.320868 0.867292 11.5871
1 10.1763 11.5115 4.42729
96
 Atoms. Timestep: 14000
2 2.02218 8.13647 3.23139
2 4.79874 0.935618 11.3565
2 1.23127 3.9325 5.58246
2 7.39989 1.16124 11.7193
2 12.3704 5.48657 8.61993
2 8.0841 9.31811 3.0594
2 11.8661 8.62696 10.0587
2 4.88648 11.5741 2.08172
2 11.7371 6.10761 6.65266
2 4.17738 10.6096 12.1047
2 2.4621 5.3699 7.71156
2 7.70826 2.67874 0.283793
2 2.55739 5.8622 5.03167
2 6.56501 7.72461 4.12849
2 11.5489 3.47259 6.86845
2 3.94753 3.41592 12.4554
2 0.321812 6.75855 4.58476
2 6.05525 11.1653 10.6901
2 1.14832 1.84612 6.27274
2 6.07148 3.0313 10.8346
2 1.54301 6.86406 10.2517
2 6.0723 3.94085 1.36814
2 10.5915 6.69653 8.49007
2 6.00763 9.71898 1.3526
2 9.71291 9.60488 9.23026
2 3.32269 10.2813 1.77278
2 1.43951 3.93231 9.22238
2 8.70046 2.6851 3.03127
2 2.11891 9.06997 9.07314
2 7.20134 11.3367 0.691001
2 10.3401 4.51551 9.12928
2 4.02558 3.5021 2.61543
2 3.64262 3.79495 5.55386
2 8.83454 2.50583 10.5573
2 10.9423 8.01155 4.04611
2 4.33158 10.6174 9.07789
2 11.283 2.63775 3.84592
2 3.60925 2.8533 9.90431
2 1.50968 5.67047 2.49418
2 8.03643 11.1804 10.415
2 12.0864 10.6397 0.412895
2 12.1487 0.709452 7.44827
2 0.765565 2.38585 0.733005
2 9.25154 0.56102 6.46335
2 12.2966 0.173938 2.12995
2 11.2275 1.53506 5.69066
2 1.39439 9.44419 11.5589
2 7.15664 10.3401 5.43443
2 2.24154 1.13519 2.49918
2 10.0076 11.6718 8.2683
2 1.35324 9.90154 2.6351
2 2.43981 1.46104 8.13114
2 6.349 3.66992 3.58016
2 2.14263 11.1 7.03982
2 10.8496 10.5451 2.8695
2 9.98603 1.63845 8.81017
2 0.741659 0.338988 11.8335
2 4.15638 1.27679 4.2818
2 11.332 2.48608 10.9936
2 9.44666 10.5474 4.71706
2 11.1277 10.7463 10.8073
2 8.99629 0.181643 4.05192
2 1.53832 1.88165 10.7244
2 3.03902 11.4776 3.6101
1 10.6539 8.10617 9.34838
1 4.76304 10.5371 0.701358
1 1.67173 5.68828 9.05584
1 7.30608 3.20599 2.03784
1 1.3705 8.29562 10.3754
1 6.50689 8.69572 2.69359
1 11.0946 5.06298 7.73023
1 4.48261 4.02676 1.08963
1 2.56543 4.79853 6.17632
1 7.55935 2.82923 11.5042
1 10.9306 6.90285 5.43404
1 4.40591 11.3941 10.6987
1 12.0923 3.03331 5.35164
1 4.60822 2.51659 11.2385
1 1.93663 6.58093 3.85283
1 7.09816 11.6811 11.6571
1 9.82939 9.36053 3.66674
1 3.07611 10.0871 8.0413
1 4.63399 3.22859 4.17683
1 10.1271 2.99141 9.75806
1 2.98135 9.68921 3.65327
1 9.75756 11.1189 9.81086
1 9.83527 1.84663 3.75829
1 2.27806 2.41136 9.30905
1 0.820929 1.6574 2.01944
1 10.4407 0.788768 7.47354
1 0.0623079 10.8436 2.16532
1 1.56462 0.340343 6.91829
1 12.3982 10.8141 11.7123
1 4.07457 0.482912 2.85709
1 0.381132 2.05645 11.8251
1 8.2468 11.5696 5.53126
96
 Atoms. Timestep: 16000
2 1.74215 9.08472 4.17125
2 4.71537 0.281411 11.723
2 1.11314 4.00791 6.15871
2 8.09631 -0.0729181 11.4346
2 12.2267 6.00862 8.86742
2 8.13912 9.13643 3.3852
2 0.20017 9.07735 6.72308
2 3.40891 11.8247 1.52496
2 10.9188 5.63531 6.29925
2 4.85272 10.506 12.6909
2 2.16333 5.71292 7.20469
2 7.94487 1.74299 0.745725
2 2.73707 6.25916 4.99993
2 6.64732 8.93617 5.04997
2 11.745 3.73359 7.58244
2 4.89753 2.24233 0.217736
2 0.264704 7.06478 4.72006
2 6.87869 10.5848 11.1344
2 1.17037 1.9359 7.15474
2 6.31522 2.28107 11.4539
2 2.01804 7.58195 8.79707
2 6.99062 3.42519 1.45945
2 10.5922 7.03013 7.78639
2 5.75083 10.5315 2.18899
2 9.57969 9.07828 8.12142
2 2.98441 9.75672 1.8978
2 1.41611 5.25625 10.2772
2 9.28353 2.23864 3.01523
2 2.87133 10.1609 7.71487
2 9.60898 10.3847 0.507302
2 10.0345 4.4056 8.85422
2 4.28834 3.58178 2.57564
2 3.89637 3.82857 5.30446
2 8.54424 2.98667 11.0618
2 9.64698 7.52513 4.1717
2 4.39198 12.0516 9.8227
2 11.5002 2.87474 4.78764
2 3.39736 3.11325 10.8833
2 2.08102 8.3256 6.5867
2 8.91999 9.82917 10.462
2 11.4541 9.79462 12.154
2 11.8305 0.981068 8.62866
2 0.463884 0.503996 0.328848
2 9.92472 12.1723 6.08549
2 11.5653 11.5992 1.45095
2 10.9357 1.62295 6.56895
2 1.19588 9.4594 9.56956
2 8.25816 11.0791 3.98908
2 1.62497 1.69424 2.18578
2 9.3374 11.6609 8.37091
2 0.587233 9.80613 1.65568
2 1.15889 2.96398 9.64798
2 6.45194 2.78763 3.2767
2 1.96724 0.330782 9.05632
2 10.597 9.49144 2.24308
2 9.96439 2.19459 8.78806
2 12.203 11.7887 10.6348
2 3.68146 2.01147 3.76548
2 11.1308 2.0878 10.9654
2 10.6091 9.83133 5.61103
2 10.7604 9.98491 9.57081
2 9.93763 12.1531 3.96368
2 1.31013 2.46929 11.8737
2 1.94071 11.6992 3.11196
1 10.7965 8.68958 6.8567
1 4.53674 10.6726 1.35557
1 1.43334 6.05076 8.99355
1 7.6562 2.08205 2.336
1 1.62655 9.19511 7.92063
1 6.62109 10.0718 3.55515
1 10.9892 5.23314 8.03504
1 5.04193 3.69943 1.05558
1 2.67664 4.95022 5.72658
1 7.82334 1.76085 12.1443
1 10.9907 6.68922 4.82009
1 5.18919 11.0659 10.8861
1 12.3381 2.6001 6.24067
1 4.83872 1.8947 11.509
1 1.81919 7.7044 5.09204
1 8.69268 10.6606 11.8612
1 9.66101 8.95718 3.5071
1 3.08204 11.5708 8.60734
1 5.04853 3.1298 3.98819
1 10.0671 3.12985 10.2527
1 1.70136 10.0115 2.97801
1 9.03815 10.1874 8.90031
1 10.8293 1.66203 3.60248
1 1.83368 3.79388 10.8571
1 12.3328 1.0074 2.01816
1 10.3221 0.702318 7.75142
1 11.3172 10.1152 0.948149
1 1.05769 1.77254 8.6191
1 11.9083 10.2468 10.5136
1 2.9181 0.799511 2.45848
1 12.3563 0.995682 11.6562
1 9.49322 10.9016 4.89529
96
 Atoms. Timestep: 18000
2 2.56999 8.31278 4.53916
2 4.96864 11.6342 11.5688
2 2.32534 3.64557 5.17213
2 8.13908 0.803295 0.462498
2 0.471923 5.23346 8.54249
2 8.22254 8.55899 2.51983
2 0.514442 9.06878 7.41333
2 3.97073 11.7723 1.24465
2 10.3185 5.68402 5.75282
2 4.73142 9.50129 12.4282
2 3.56599 5.22463 7.59045
2 7.95578 3.61122 1.03385
2 3.69846 5.68165 5.48269
2 5.87311 9.56481 4.95642
2 12.1272 5.03426 6.54772
2 1.6878 7.12282 2.82269
2 11.6726 7.49187 5.84065
2 7.46525 10.1327 11.4842
2 3.85122 2.08076 6.30054
2 5.95175 2.13247 11.5934
2 2.00042 7.02479 9.35293
2 0.499577 5.43655 4.1711
2 10.3474 7.16413 8.01159
2 6.10654 9.49348 2.69633
2 8.96731 11.5106 6.87943
2 3.15036 8.77264 1.83166
2 2.19893 4.55471 10.1656
2 8.02469 3.37715 3.69443
2 3.10643 9.36367 8.58189
2 9.72219 10.3577 12.6012
2 10.1861 4.13855 8.54107
2 3.1576 4.11563 3.35485
2 4.6598 3.99422 4.83626
2 8.03712 2.92201 10.8815
2 9.93941 7.29079 3.95782
2 5.70664 9.78746 9.7867
2 10.6401 3.27115 4.48908
2 3.44895 2.44518 11.475
2 2.59986 7.99067 7.07095
2 8.59302 11.8559 10.1325
2 11.9526 10.1275 11.7849
2 1.60921 0.823092 7.02856
2 10.7709 1.51146 0.558447
2 11.0648 12.0812 5.50788
2 10.2579 11.7922 3.51411
2 0.647162 2.60037 6.1061
2 1.2149 9.26464 9.59156
2 7.98346 10.6891 4.36229
2 0.908074 0.865218 2.40681
2 10.9538 1.04201 7.77888
2 12.184 9.4932 1.88134
2 2.61292 2.3286 9.03519
2 5.61114 3.59559 2.66796
2 4.20539 11.478 7.82948
2 10.0247 8.22456 0.826889
2 8.77086 2.04957 8.33246
2 11.9039 11.8875 10.5366
2 3.76545 1.49579 3.20974
2 10.606 2.93322 10.7056
2 10.2636 10.0212 5.6599
2 10.2272 10.6405 9.32598
2 8.49894 1.1384 5.30745
2 0.751136 2.69839 10.8235
2 2.23788 10.4269 3.37901
1 10.775 8.76155 6.8548
1 4.92229 9.06186 1.87376
1 2.06407 5.45443 8.922
1 7.1328 4.08997 2.46731
1 1.81621 8.30121 8.5154
1 7.10033 9.25749 3.90159
1 10.959 5.48194 7.66385
1 2.16733 5.59604 3.37435
1 3.67575 4.14098 6.20619
1 7.61933 2.56667 12.3615
1 11.2089 6.50506 4.58717
1 5.80623 10.0336 11.3553
1 0.640754 3.78906 5.1567
1 4.56415 1.04181 12.4871
1 2.95561 7.17508 5.67437
1 8.45863 11.2108 11.8492
1 9.37208 7.57352 2.23279
1 4.66959 9.99376 8.38002
1 4.36606 3.1256 3.48922
1 9.30836 3.08912 9.66594
1 1.90924 8.92696 2.82693
1 9.48022 11.9817 8.57607
1 9.02276 2.6177 4.88521
1 2.24579 3.02828 10.5227
1 10.903 0.55379 1.96912
1 11.9825 0.995722 6.39194
1 10.9778 9.58154 0.619943
1 3.294 1.24175 7.58897
1 11.8112 10.4898 10.0307
1 2.66947 12.0138 2.64706
1 11.486 1.50162 11.3817
1 9.37974 11.276 5.24298
96
 Atoms. Timestep: 20000
2 1.5263 8.24333 4.10599
2 5.62544 12.424 12.929
2 0.515099 4.26529 5.52243
2 8.61621 0.677445 12.523
2 11.4267 5.1494 8.627
2 7.77606 8.36203 2.68967
2 0.386296 8.42109 7.42006
2 3.34817 1.03754 0.927039
2 10.2099 5.70673 5.61834
2 4.96171 10.2059 0.153502
2 2.00656 5.20589 7.46405
2 7.71856 2.98216 1.30591
2 2.89321 5.8385 5.52475
2 11.7113 11.6657 1.17616
2 11.0665 3.70128 7.16122
2 2.25323 7.32371 2.29902
2 0.209269 7.07721 5.52753
2 7.28652 10.6078 11.714
2 2.5303 2.3148 6.78693
2 6.29531 2.6098 12.2989
2 1.26436 7.0008 9.21817
2 0.833321 5.40889 3.46967
2 10.4111 6.95567 7.94588
2 5.82753 10.1935 3.10961
2 9.05133 11.1373 7.65933
2 3.2176 9.33616 1.93352
2 2.24627 4.83083 10.2431
2 8.2465 2.02146 3.04078
2 3.46866 9.00093 8.83614
2 9.96095 9.81075 -0.0940321
2 9.43185 4.33308 8.75321
2 2.79796 4.25667 2.67136
2 3.38899 3.79124 5.2602
2 8.77688 3.26522 11.3275
2 10.2814 6.58334 3.79872
2 5.36623 10.5973 10.3213
2 10.3659 2.45521 4.35684
2 3.97246 2.58491 11.3979
2 2.35949 8.02013 6.93003
2 9.37197 11.7946 10.3305
2 11.8716 9.83088 11.8206
2 1.5758 0.591097 7.79214
2 11.5094 2.04576 12.1699
2 11.3164 11.2443 6.18672
2 10.8472 0.943601 2.55135
2 11.8899 1.44484 5.76753
2 1.37615 9.8335 9.06319
2 7.99528 9.94319 5.21941
2 1.05131 0.808445 2.20457
2 11.0817 0.77988 7.95327
2 1.1526 9.00507 1.39973
2 3.28452 2.7361 9.00285
2 5.83195 3.62132 3.2739
2 3.65205 11.7163 8.1816
2 10.0787 8.80985 1.74064
2 8.58818 1.74602 8.92523
2 0.506494 12.2235 10.0083
2 3.27182 1.46563 3.41498
2 10.8273 2.81649 9.77048
2 10.3003 9.31155 6.08204
2 11.0559 10.6874 8.95013
2 9.01581 11.8976 4.40414
2 1.18768 3.03655 10.505
2 1.96592 10.9188 2.67531
1 10.9904 7.74132 6.88158
1 5.04571 9.78664 1.80321
1 1.08003 5.45422 8.98566
1 7.54044 3.52059 2.89562
1 1.87955 8.45042 8.39558
1 7.18699 9.28955 3.91942
1 10.0265 5.23159 7.44247
1 2.26167 5.79993 2.64339
1 1.99142 4.12006 6.18121
1 7.97523 2.36564 12.3917
1 11.6497 5.76229 4.62365
1 5.8704 11.1685 11.839
1 11.1715 2.75336 5.72171
1 4.68485 2.00061 12.7355
1 2.2305 7.38479 5.49737
1 8.81565 11.2635 11.9141
1 9.23112 7.52613 2.77093
1 4.16555 10.4087 9.17246
1 3.75985 3.2728 3.60102
1 9.2516 3.05175 9.84623
1 1.88655 9.23269 2.83498
1 9.68359 12.0818 8.65644
1 9.55373 1.21163 3.61363
1 2.85156 3.42385 10.5415
1 11.7575 1.51731 1.30286
1 12.2644 12.2231 6.88377
1 11.6432 9.74083 0.924303
1 3.18471 1.39077 8.00048
1 12.1434 10.2958 10.4267
1 2.51051 0.410188 2.22835
1 12.0739 1.65466 10.5703
1 9.35153 10.8754 5.85923
96
 Atoms. Timestep: 22000
2 2.04626 8.76762 4.37277
2 5.5705 0.608254 12.1957
2 1.70385 4.03621 5.14594
2 8.80283 0.986673 12.1534
2 11.6309 5.01466 8.71342
2 8.02371 8.68673 3.50375
2 11.8836 8.99837 7.85063
2 4.526 3.12025 1.13976
2 10.553 5.89517 6.12021
2 5.08483 10.508 0.581703
2 2.1033 4.73997 7.59742
2 7.34584 1.83635 1.41843
2 3.0177 6.03402 5.08708
2 11.7473 10.8371 1.55365
2 11.3613 4.18795 6.82857
2 2.37082 7.42065 2.93796
2 11.5932 7.80685 4.16089
2 7.31864 10.5024 11.3992
2 3.29931 3.07619 6.57248
2 6.52558 2.7456 12.3262
2 1.5613 6.97613 9.04979
2 0.74791 5.69752 3.80682
2 9.99434 7.15193 7.79977
2 5.41344 9.72008 3.10854
2 9.56243 10.9089 7.23071
2 2.79132 9.47498 1.69082
2 1.82435 4.35844 10.3485
2 8.65179 1.5528 3.41202
2 2.9567 9.72598 9.0842
2 9.45793 10.0191 0.494376
2 9.41575 4.19602 8.68004
2 3.05636 4.51716 2.79562
2 3.59833 3.30704 4.59885
2 8.42016 2.88214 10.9837
2 9.55626 6.55505 3.92565
2 4.75508 11.5809 9.95005
2 10.7053 2.79897 4.54812
2 3.83429 1.9774 11.4174
2 2.3179 8.86362 7.14313
2 9.44919 10.6972 10.1589
2 11.7176 9.29539 12.4973
2 1.64747 0.964153 7.2707
2 10.8041 11.5598 12.4171
2 11.136 11.4032 6.09834
2 10.8762 0.785605 2.43788
2 11.7536 2.13918 6.1582
2 0.983899 9.10027 10.1733
2 7.90508 10.8946 4.69235
2 1.2802 1.2385 1.07283
2 11.4416 0.832538 7.72476
2 11.7731 8.64659 2.99608
2 2.55952 2.27445 8.67175
2 5.72127 3.29215 3.06686
2 3.55459 12.184 7.89776
2 9.97297 7.86916 1.98109
2 9.36992 0.912005 8.95046
2 0.382862 11.7434 10.882
2 3.2554 1.60166 2.96137
2 10.2652 2.02813 10.8396
2 10.0184 9.53143 5.88545
2 11.3942 10.5008 9.41335
2 9.90252 0.655854 5.05156
2 0.989368 2.52286 10.4729
2 3.44684 11.3452 2.42313
1 10.3665 8.69851 7.38396
1 4.27645 9.98768 1.9018
1 1.33679 5.27401 9.06009
1 7.11959 2.33344 3.04525
1 1.47604 8.5674 8.67879
1 6.84195 9.82935 3.9485
1 10.3883 5.40574 7.80587
1 2.32132 5.875 3.26965
1 3.05859 4.60964 6.06612
1 8.05203 2.25384 12.4775
1 11.1952 6.32012 4.49516
1 5.58171 11.1267 11.3984
1 12.0863 3.67539 5.45037
1 4.9292 2.0839 12.5643
1 2.42244 7.97707 5.61992
1 8.97045 11.0407 11.9014
1 8.70939 7.37999 2.84746
1 4.1372 10.7776 8.78085
1 4.19145 3.15373 2.84411
1 9.24075 2.74795 9.61266
1 1.59716 8.76178 2.44398
1 10.1855 11.5614 8.54495
1 10.193 1.52655 3.72978
1 2.59199 2.52487 10.3688
1 11.7789 0.384934 1.1944
1 12.4532 0.49079 6.25332
1 10.9 9.40702 1.23579
1 3.12695 1.60767 7.10488
1 12.2954 10.1895 11.0181
1 2.66977 0.655833 1.71384
1 11.7033 1.39144 11.2193