96
 Atoms. Timestep: 0
2 0 7.95642 4.74695
2 4.63304 0 11.358
2 0 4.63304 4.74695
2 7.95642 0 11.358
2 0 4.63304 8.47514
2 7.95642 0 1.8641
2 0 7.95642 8.47514
2 4.63304 0 1.8641
2 10.7421 8.43088 6.61105
2 4.15858 10.7421 0
2 1.84736 4.15858 6.61105
2 8.43088 1.84736 0
2 1.84736 8.43088 6.61105
2 8.43088 10.7421 0
2 10.7421 4.15858 6.61105
2 4.15858 1.84736 0
2 10.5201 6.29473 5.04003
2 6.29473 10.5201 11.6511
2 2.06934 6.29473 5.04003
2 6.29473 2.06934 11.6511
2 2.06934 6.29473 8.18207
2 6.29473 2.06934 1.57102
2 10.5201 6.29473 8.18207
2 6.29473 10.5201 1.57102
2 10.1594 8.65935 9.20274
2 3.93011 10.1594 2.59169
2 2.43004 3.93011 9.20274
2 8.65935 2.43004 2.59169
2 2.43004 8.65935 9.20274
2 8.65935 10.1594 2.59169
2 10.1594 3.93011 9.20274
2 3.93011 2.43004 2.59169
2 2.43004 3.93011 4.01936
2 8.65935 2.43004 10.6304
2 10.1594 8.65935 4.01936
2 3.93011 10.1594 10.6304
2 10.1594 3.93011 4.01936
2 3.93011 2.43004 10.6304
2 2.43004 8.65935 4.01936
2 8.65935 10.1594 10.6304
2 0 10.703 0
2 1.88643 0 6.61105
2 0 1.88643 0
2 10.703 0 6.61105
2 0 0 1.872
2 0 0 8.48305
2 0 0 11.3501
2 0 0 4.73905
2 11.2706 2.31295 2.18973
2 10.2765 11.2706 8.80078
2 1.31887 10.2765 2.18973
2 2.31295 1.31887 8.80078
2 1.31887 2.31295 2.18973
2 2.31295 11.2706 8.80078
2 11.2706 10.2765 2.18973
2 10.2765 1.31887 8.80078
2 1.31887 10.2765 11.0324
2 2.31295 1.31887 4.42131
2 11.2706 2.31295 11.0324
2 10.2765 11.2706 4.42131
2 11.2706 10.2765 11.0324
2 10.2765 1.31887 4.42131
2 1.31887 2.31295 11.0324
2 2.31295 11.2706 4.42131
1 11.0086 7.83654 8.10972
1 4.75292 11.0086 1.49867
1 1.5809 4.75292 8.10972
1 7.83654 1.5809 1.49867
1 1.5809 7.83654 8.10972
1 7.83654 11.0086 1.49867
1 11.0086 4.75292 8.10972
1 4.75292 1.5809 1.49867
1 1.5809 4.75292 5.11238
1 7.83654 1.5809 11.7234
1 11.0086 7.83654 5.11238
1 4.75292 11.0086 11.7234
1 11.0086 4.75292 5.11238
1 4.75292 1.5809 11.7234
1 1.5809 7.83654 5.11238
1 7.83654 11.0086 11.7234
1 10.1088 10.1088 3.30552
1 2.48067 10.1088 9.91657
1 2.48067 2.48067 3.30552
1 10.1088 2.48067 9.91657
1 2.48067 10.1088 3.30552
1 10.1088 10.1088 9.91657
1 10.1088 2.48067 3.30552
1 2.48067 2.48067 9.91657
1 0 1.60471 1.57853
1 10.9848 0 8.18958
1 0 10.9848 1.57853
1 1.60471 0 8.18958
1 0 10.9848 11.6436
1 1.60471 0 5.03252
1 0 1.60471 11.6436
1 10.9848 0 5.03252
96
 Atoms. Timestep: 2000
2 -0.0112279 7.77193 4.63111
2 5.36922 12.9112 10.6277
2 11.5854 7.88083 4.69515
2 8.13282 0.286068 11.8825
2 12.3977 4.94566 7.86321
2 7.93362 0.272113 1.48723
2 12.6373 7.2014 7.80762
2 4.9786 0.377654 1.947
2 10.1805 8.10101 7.02424
2 4.08014 12.4789 13.1585
2 0.973383 4.30052 6.56677
2 7.97175 2.61587 12.8076
2 2.12448 7.99871 6.47329
2 7.40126 11.5272 13.2775
2 10.2513 4.47351 6.20402
2 4.65404 1.42842 13.3254
2 9.87558 6.218 4.34591
2 6.91328 11.3466 10.7834
2 2.58144 6.28033 5.50363
2 6.18945 1.71586 11.3536
2 1.80715 6.00677 8.07741
2 6.51151 2.47452 1.19065
2 10.8131 6.08727 8.35971
2 5.86466 11.0558 0.944906
2 11.0932 8.76762 10.0307
2 3.86055 10.7594 1.94439
2 2.14037 3.36237 9.1814
2 9.04813 2.11326 2.13069
2 1.878 8.39886 9.57721
2 8.38125 11.6729 2.83369
2 9.8265 3.89611 8.98169
2 3.45057 2.28541 2.10927
2 2.17911 3.30102 4.07975
2 8.69069 2.12568 10.1098
2 9.47444 9.39957 4.9623
2 4.20766 10.0599 9.53745
2 10.3233 3.03743 3.74616
2 3.1529 1.36033 10.9059
2 2.51778 8.92212 3.6214
2 10.0986 11.3724 10.9778
2 12.5615 9.95938 0.280374
2 1.89094 12.4964 7.10014
2 12.735 1.6469 13.045
2 11.6599 0.00978978 6.70521
2 12.9815 12.4011 1.29753
2 1.38497 12.3651 10.4695
2 1.00823 11.5051 11.8233
2 0.294089 12.2347 5.09913
2 11.4428 1.24456 1.69837
2 11.5173 11.5856 9.59005
2 0.773289 10.8682 2.38398
2 1.22678 1.06703 9.37412
2 0.940927 1.60086 1.8882
2 1.53193 10.7854 9.00342
2 11.4298 10.5224 3.22007
2 11.1395 1.72801 8.81284
2 1.56544 9.15975 11.7943
2 1.94829 0.888952 4.55388
2 11.5272 2.04967 10.7329
2 10.5556 11.3588 5.15688
2 11.9746 10.7392 11.898
2 10.6255 0.522064 4.30172
2 0.995947 2.9557 11.6166
2 2.67369 11.5015 4.37671
1 11.2491 7.79122 8.46465
1 4.32227 11.7906 1.0886
1 1.07816 4.34474 8.30758
1 8.03551 2.15567 0.77572
1 1.39981 7.45752 8.05405
1 7.53987 11.687 1.34286
1 10.7842 4.57911 7.88285
1 5.18485 1.87933 1.32445
1 1.77943 4.5063 5.07227
1 7.65454 1.61823 11.4159
1 9.94553 7.60465 5.32552
1 5.37413 11.3596 10.1867
1 9.88273 4.43715 4.48114
1 4.44302 0.707481 11.8299
1 2.0121 8.11707 4.66161
1 8.39166 11.5951 11.5755
1 9.45539 10.74 3.68807
1 2.59175 9.71101 10.4198
1 2.24125 1.8357 3.27424
1 10.1611 2.55184 9.90051
1 2.41243 10.5009 2.88063
1 10.9291 10.1303 10.6938
1 10.3587 1.52489 2.84588
1 1.79913 2.21026 10.4164
1 12.7825 1.05013 1.15506
1 12.0477 0.00877868 8.62308
1 12.3358 10.7891 1.81124
1 1.41389 12.5195 8.81044
1 0.268336 10.1314 12.3801
1 1.68069 12.5676 5.33636
1 12.265 3.15124 11.8275
1 11.5831 12.428 5.31283
96
 Atoms. Timestep: 4000
2 0.176393 7.4847 5.55709
2 4.47444 12.7993 11.9676
2 10.1004 8.32052 3.58029
2 8.7002 0.184312 11.8482
2 0.128402 4.56926 7.94866
2 7.3274 12.5199 1.55836
2 12.3349 8.168 8.40059
2 6.34024 12.4599 3.98793
2 10.4921 7.93752 6.27487
2 4.17786 0.0612108 2.08806
2 2.24061 4.35849 6.58822
2 9.11926 2.74222 0.0600702
2 1.31157 7.24677 7.32313
2 7.92057 10.9551 12.9123
2 10.8423 4.05216 6.35776
2 4.88925 1.84284 0.469022
2 10.5469 5.9886 5.04403
2 6.26964 11.241 11.6416
2 2.70747 6.4638 4.93825
2 6.36376 1.95718 11.8638
2 1.64495 5.89997 9.12958
2 6.12278 1.40535 2.77176
2 11.2091 6.36712 8.32492
2 6.41225 10.7484 1.68809
2 10.3521 9.32319 9.24444
2 3.84746 10.5102 3.81123
2 2.71004 3.47521 9.1583
2 8.52534 1.30522 1.76913
2 1.29639 9.05498 8.65999
2 8.48224 10.4789 2.40921
2 10.5675 3.60471 8.6432
2 3.39349 2.64436 2.38762
2 1.73709 4.0246 3.61589
2 8.75092 2.6028 10.7371
2 0.559022 7.84871 10.444
2 3.9433 10.1501 10.255
2 9.31824 3.08029 3.11814
2 4.03975 2.83868 11.8306
2 1.83905 9.68705 5.01449
2 9.02914 10.683 10.4927
2 0.242947 9.81367 13.2367
2 0.702179 12.4833 6.82788
2 0.214196 0.980053 13.1138
2 9.65095 12.6312 6.02421
2 12.1542 11.9568 1.58436
2 0.196946 12.7128 10.2452
2 11.1248 0.567889 11.0014
2 11.5187 1.15875 5.12536
2 11.0712 1.17006 1.35047
2 10.9234 11.8377 8.89828
2 1.50467 10.028 2.92128
2 1.52613 1.23078 9.44669
2 0.998966 1.75804 1.81112
2 1.79204 11.0244 8.68609
2 10.746 10.3011 1.55575
2 10.5207 1.55277 8.80651
2 1.45243 9.61829 10.8938
2 0.738501 1.64656 4.41057
2 11.862 2.61325 10.6716
2 10.2673 11.2979 4.10613
2 11.7208 10.3883 11.2251
2 9.02881 0.613982 3.81218
2 1.36539 1.60864 11.5225
2 1.29636 12.4579 4.2839
1 10.7357 7.86668 7.89293
1 5.1339 11.4465 2.77529
1 1.92021 4.41772 8.21917
1 7.58811 0.527635 2.91553
1 0.845524 7.38164 9.01786
1 7.84185 11.1693 1.0568
1 11.2588 4.98247 7.94588
1 4.61927 1.58719 2.048
1 2.04479 4.91266 5.09804
1 8.36872 1.76831 12.0041
1 11.2527 7.28762 4.57923
1 4.75869 11.7067 10.7784
1 10.3266 4.3172 4.42156
1 5.03696 1.55387 12.5415
1 1.88502 7.83645 5.51336
1 7.93728 11.6562 11.5624
1 10.084 9.90444 2.90644
1 2.40372 10.0879 9.64652
1 1.63119 2.57651 3.0731
1 10.3708 2.74245 10.0549
1 2.08084 11.1226 4.13813
1 10.59 10.637 10.1266
1 9.75549 2.0833 1.5107
1 2.49723 2.44972 10.6817
1 12.6617 0.639862 1.15787
1 10.4063 0.138451 7.55126
1 12.3256 10.2648 1.07394
1 1.28907 12.5934 8.82059
1 0.0589132 9.45714 11.7214
1 0.227862 0.553714 5.41805
1 -0.102084 1.17018 11.4645
1 10.3521 0.133548 4.47805
96
 Atoms. Timestep: 6000
2 1.6605 8.68704 6.02201
2 6.2135 1.55953 10.874
2 8.63174 7.78518 5.03321
2 9.41325 5.41425 12.0326
2 12.3851 6.83336 8.11989
2 7.71914 11.5815 2.44209
2 7.22379 6.57786 7.46847
2 3.93555 10.3055 12.5825
2 9.6572 6.36966 7.27731
2 3.80398 0.592441 1.13971
2 2.93776 5.73502 7.18326
2 8.99313 3.33302 0.916286
2 4.25673 8.39733 7.40576
2 6.41238 9.83262 0.845439
2 10.4983 3.38442 6.39597
2 5.2454 2.22963 0.642666
2 9.22385 5.85737 5.3626
2 6.42182 11.6169 11.9144
2 4.16502 6.85766 5.4207
2 6.86453 3.20912 12.4581
2 2.3033 7.72139 8.52989
2 6.18186 0.931928 3.06422
2 10.3445 5.2838 8.94687
2 5.12151 11.3518 1.34495
2 10.0127 7.79226 9.21404
2 2.63356 10.4496 2.33614
2 2.03343 4.86674 9.87215
2 8.53689 1.77857 2.37255
2 4.1875 10.1996 8.72067
2 7.66936 9.58914 2.84142
2 10.4468 2.58261 8.91691
2 3.53152 2.45074 2.65523
2 4.13152 3.5187 5.18759
2 8.40212 2.83814 10.6786
2 2.9584 8.94693 10.3648
2 6.80754 11.1997 8.84035
2 10.5381 3.51208 3.63026
2 3.7983 2.71596 11.0793
2 3.77367 9.64218 4.65844
2 8.29052 9.59622 11.1271
2 10.8834 9.43206 12.6184
2 3.27853 2.40861 5.91377
2 12.1691 0.867404 12.8119
2 9.2335 11.6176 6.64862
2 11.4852 11.4392 1.85836
2 1.72816 0.720833 6.59717
2 12.3241 11.8931 11.3072
2 11.4952 11.6553 5.76966
2 11.1366 1.58956 1.97615
2 8.6615 9.68671 8.29322
2 3.00958 0.311994 3.92748
2 3.17023 2.71215 8.51061
2 1.20468 0.572002 2.08736
2 4.11824 12.4594 7.10913
2 10.0943 8.90066 2.52576
2 8.20328 0.269363 9.07969
2 1.61226 9.82376 11.1141
2 0.941795 2.58923 3.6527
2 10.5204 0.848959 10.3708
2 9.61878 10.0114 4.61211
2 11.0861 10.0809 9.80304
2 8.51257 0.147964 4.28439
2 0.973938 2.16238 10.6517
2 1.57306 11.1748 5.33867
1 10.8752 6.70841 8.46652
1 3.34598 11.0892 0.878399
1 1.66549 6.19022 8.47476
1 7.8005 0.751708 3.16747
1 3.74808 8.64977 9.07173
1 6.309 10.5228 2.29588
1 10.4182 3.91778 8.15358
1 4.8498 1.52923 2.07109
1 3.50634 5.24752 5.22356
1 8.70205 3.54937 12.1596
1 8.31846 6.83923 6.25549
1 6.57846 12.3866 10.3082
1 10.0269 4.10099 5.05929
1 5.35338 2.74297 11.7799
1 3.41344 8.65525 5.83398
1 6.6924 9.74661 11.9457
1 9.03696 8.886 3.63493
1 5.34273 11.2493 7.82327
1 2.18108 1.56171 3.22896
1 9.18228 1.57619 9.64489
1 2.89815 10.841 4.00668
1 9.31052 9.32674 9.75229
1 9.89704 2.74539 2.35887
1 2.31111 3.17195 10.0285
1 11.9733 0.536375 1.28045
1 8.54273 11.4077 8.03573
1 10.6231 10.0876 1.62268
1 3.09403 1.40087 7.35221
1 12.2166 10.0575 11.3255
1 0.616983 12.2509 5.95382
1 12.0984 1.1816 11.0887
1 9.97047 11.4609 5.14961
96
 Atoms. Timestep: 8000
2 12.0105 3.43776 8.79113
2 5.20167 1.44739 11.6207
2 10.3166 7.34756 4.09133
2 9.03248 6.09806 11.8565
2 0.377129 6.73193 9.28716
2 7.61083 11.2164 1.15384
2 10.1536 5.55579 9.74554
2 3.02848 9.91565 12.7552
2 10.7324 7.21179 7.07228
2 4.35264 0.14533 0.744581
2 1.48017 5.62181 7.84132
2 8.53338 3.83825 0.923193
2 3.80976 7.68784 5.36632
2 6.38918 8.90801 12.7258
2 7.75632 3.99325 5.7076
2 6.25478 2.1745 1.08972
2 8.72485 6.01137 5.19513
2 5.0829 8.53121 10.4162
2 1.80832 3.16598 6.13873
2 7.16987 3.66933 11.5995
2 4.20432 6.25308 7.24153
2 6.82247 0.609901 2.65561
2 9.78991 5.54452 7.72619
2 5.52563 10.1846 1.27176
2 10.2572 8.47228 9.28592
2 3.20597 10.102 2.58665
2 3.00519 5.95869 9.72216
2 8.48235 2.12372 2.43608
2 5.17121 8.90171 6.39308
2 8.02463 8.60101 2.29101
2 9.57509 3.09749 8.34859
2 4.09203 2.29755 3.11644
2 5.93987 6.01761 5.51961
2 9.30303 3.80329 10.8118
2 2.29205 8.3373 7.57951
2 5.93391 11.5128 8.03074
2 8.9277 4.37596 3.42994
2 4.71192 4.17719 11.6429
2 1.82903 8.95698 4.54725
2 8.30622 9.28735 10.8545
2 10.1769 11.7174 2.21136
2 1.33774 11.0483 9.71657
2 1.33103 3.45283 12.8149
2 8.33471 11.4711 6.75696
2 0.959989 10.9311 2.36636
2 0.78023 10.3541 7.0176
2 1.1964 1.14624 10.7799
2 10.8514 11.1889 5.70458
2 10.9869 3.29465 1.5336
2 9.17244 10.3795 9.16618
2 2.58371 12.0688 3.42922
2 5.06702 3.89951 9.32793
2 1.41264 2.87624 2.80597
2 3.07658 10.6967 7.56988
2 10.5712 9.3771 1.9907
2 7.10105 11.7762 9.97993
2 12.2043 11.2268 12.5191
2 2.42717 2.06933 5.17809
2 11.5408 3.19233 11.136
2 9.3663 9.425 4.75888
2 11.4278 10.5338 10.8626
2 9.02537 11.7635 3.96509
2 2.31201 3.99382 10.4235
2 1.10803 11.3691 4.77872
1 10.6867 6.95046 8.77715
1 3.76104 10.5033 1.07444
1 2.17773 7.05535 8.52642
1 8.47158 0.269083 2.24258
1 5.2046 7.13124 6.37412
1 7.05059 9.53274 1.21741
1 8.57487 3.97194 7.28791
1 5.31521 1.19646 2.13431
1 1.10762 3.86776 7.81028
1 8.56711 4.59341 12.1194
1 10.303 6.44766 5.5951
1 5.88168 11.9068 10.9415
1 7.93707 4.98576 4.45114
1 5.60052 2.90333 12.1809
1 2.32151 8.264 5.791
1 6.43223 9.54448 11.0788
1 9.55673 8.49262 3.24767
1 4.62015 10.4112 7.25142
1 2.37524 1.78415 3.48576
1 10.4823 3.75538 9.77754
1 1.81478 10.2786 3.61056
1 9.94299 9.44211 10.3366
1 9.41578 3.62419 2.25693
1 3.68868 4.62265 10.4603
1 0.656385 3.90643 1.59086
1 7.70161 11.5841 8.44497
1 11.3644 10.851 1.51692
1 1.62223 10.0694 8.2846
1 1.03164 11.4117 11.2536
1 0.224097 11.5078 5.79396
1 1.22688 2.84623 11.0685
1 9.2421 10.9988 5.21516
96
 Atoms. Timestep: 10000
2 9.32245 2.64981 9.98137
2 10.833 1.34711 8.07043
2 11.4749 8.42242 6.3776
2 7.18527 7.7287 1.09531
2 10.5174 5.5417 9.43179
2 7.34766 0.816966 2.13505
2 8.36436 4.3724 8.74468
2 4.29699 2.36799 12.8678
2 10.0447 6.60668 5.6639
2 4.5559 1.7293 2.56555
2 0.657392 3.49054 9.27252
2 9.05861 6.26462 1.21213
2 4.86021 7.69426 3.95677
2 6.58723 11.3093 11.4333
2 10.5522 3.5305 4.01707
2 6.23896 3.43973 4.01916
2 12.0398 5.74137 6.87401
2 9.46615 11.6594 11.5392
2 10.1174 4.85146 11.6216
2 6.93107 5.49541 1.48834
2 6.33404 9.78297 5.45497
2 8.11048 3.18712 2.50049
2 9.99373 4.74261 6.5794
2 4.39259 11.8206 0.864029
2 9.58152 7.45374 8.28991
2 2.31507 11.4377 2.71015
2 1.87483 5.52543 9.92377
2 10.4961 2.35841 1.89285
2 3.81907 8.31548 8.29921
2 6.66829 10.4533 1.55157
2 9.63044 2.25411 6.39252
2 3.36272 1.90088 4.93918
2 7.23671 7.44984 5.29243
2 7.60747 5.06664 11.4517
2 0.85421 7.31542 8.77038
2 6.46031 9.68966 7.88734
2 7.9645 5.3335 3.6731
2 3.50665 3.54727 11.6083
2 2.48284 8.97418 3.39928
2 8.62055 9.35026 9.98653
2 0.537528 9.90073 2.09194
2 1.92861 7.94982 11.2541
2 1.87779 1.35153 0.838153
2 9.15046 10.2445 5.42608
2 10.8641 7.15921 1.06244
2 1.80173 9.69489 7.24075
2 12.3819 10.7195 11.6979
2 11.1279 11.0668 6.99995
2 11.5988 4.66205 1.45733
2 8.69049 9.5453 7.85616
2 1.18983 11.9766 4.54064
2 3.95129 6.07907 9.74877
2 1.55762 2.71772 3.1718
2 5.7612 9.49748 10.1365
2 9.53629 9.74276 1.22274
2 8.06695 11.7371 6.30071
2 11.77 8.56845 12.1736
2 0.62241 2.5438 5.58903
2 0.444488 1.00108 0.438749
2 8.94996 9.51089 3.12789
2 11.2393 8.74241 10.0354
2 9.50334 12.1233 3.4846
2 10.8018 1.12983 10.1474
2 11.7692 9.74682 4.58128
1 9.19385 5.50035 7.9645
1 3.28179 1.03283 1.84057
1 12.0593 6.0584 9.99692
1 8.94715 1.44855 2.33083
1 6.05052 8.42069 4.64801
1 6.15616 11.7386 0.790954
1 10.8009 3.4689 5.67999
1 4.78151 2.4715 4.41975
1 10.7892 2.32734 9.20175
1 7.75788 6.11948 12.7673
1 11.7 6.84227 5.80287
1 9.53448 0.643174 7.15834
1 8.60864 6.07423 4.99179
1 7.03672 4.24984 2.56637
1 3.40538 7.85251 3.51782
1 8.21579 10.6587 10.8786
1 7.86542 9.21654 1.64646
1 5.04426 9.49775 8.67727
1 1.91975 1.74483 4.43663
1 8.61886 4.09007 10.2882
1 1.36677 10.4025 3.46293
1 9.704 8.75675 9.05877
1 10.5432 5.52491 0.916735
1 3.13246 4.84037 10.5489
1 11.4792 3.38826 2.54465
1 7.83687 10.1094 6.56843
1 10.9554 9.09846 1.56393
1 2.14852 8.26029 8.02068
1 0.872371 9.38028 10.8251
1 12.1318 9.84463 6.2545
1 10.974 0.501727 11.5759
1 9.81485 10.5483 3.84984
96
 Atoms. Timestep: 12000
2 11.4422 3.25486 8.66123
2 10.8273 1.4373 7.62661
2 9.49118 8.67024 4.65823
2 7.93443 9.91801 1.3729
2 3.83747 5.33514 7.81989
2 7.70665 1.64733 2.57361
2 11.933 6.41569 8.4158
2 4.8638 1.56517 1.21677
2 7.22065 6.03174 6.86853
2 2.95555 11.2993 2.73032
2 0.703034 3.22779 6.60588
2 5.29455 6.14592 4.27083
2 4.37482 9.73597 5.58165
2 8.62486 11.7126 0.723665
2 11.1019 4.97663 4.2586
2 3.12221 11.7679 5.7882
2 10.8331 4.8175 6.67856
2 11.0005 11.1273 10.574
2 10.2885 5.88343 9.71787
2 6.94342 5.13313 2.59021
2 6.43856 9.49041 5.38143
2 5.95634 3.09603 3.28317
2 1.32888 5.91923 5.99341
2 5.7278 11.157 1.92
2 8.07189 7.92643 8.86163
2 3.82477 9.50628 1.10703
2 4.80248 5.27487 10.4652
2 8.78241 4.66292 3.16111
2 3.04142 10.3757 8.08057
2 8.20028 10.8891 3.52034
2 10.5678 1.35917 5.58135
2 1.55829 1.29197 4.47874
2 5.60521 7.18729 6.96934
2 8.80571 7.49775 11.6507
2 2.91912 7.27231 8.99158
2 4.81844 11.5859 8.02147
2 4.85282 3.94762 5.5345
2 5.21354 3.01202 12.6281
2 2.36991 8.77771 3.53272
2 8.77915 10.1174 10.576
2 1.44979 8.85415 1.71836
2 3.1141 7.68617 6.88181
2 3.18231 0.761278 12.3435
2 10.6776 10.3004 6.04657
2 0.317287 9.10563 11.4598
2 11.68 8.81321 7.38382
2 1.02892 9.32747 9.94837
2 9.427 10.2374 7.84493
2 10.0636 5.1933 1.08357
2 7.23355 10.045 9.23625
2 4.28132 7.04299 1.93677
2 5.44464 5.35727 1.33578
2 11.2369 2.96604 2.74993
2 2.73275 1.88981 7.69159
2 9.8571 8.6213 1.31164
2 7.85968 11.4269 7.85323
2 10.766 10.5504 0.720467
2 0.853589 3.30817 4.45401
2 2.36217 11.2906 11.2786
2 6.72331 7.50387 1.73746
2 10.1547 8.58965 8.68053
2 8.62306 10.6425 5.78374
2 1.2965 0.898978 8.7804
2 1.39437 8.45158 5.38181
1 2.92773 6.16271 6.46885
1 4.14831 11.2485 1.30953
1 3.9018 5.99811 9.41094
1 7.3567 3.70945 2.47743
1 5.3828 8.98305 6.5678
1 7.40381 11.4281 2.29382
1 0.688243 4.8267 5.38093
1 3.1608 1.12728 4.31091
1 1.08554 2.25504 7.86199
1 5.78466 6.46039 2.58133
1 7.95742 6.5144 8.2415
1 9.6221 11.4376 6.72057
1 5.43639 5.89381 6.00562
1 4.52984 3.019 4.25281
1 2.77771 9.33792 5.15554
1 9.88245 11.1043 11.6868
1 8.24589 8.22292 1.13731
1 3.39077 12.0154 7.3073
1 11.4262 1.70831 3.94297
1 11.1157 5.0919 8.44058
1 2.94569 8.36579 1.92389
1 8.86334 9.31278 9.18569
1 9.79604 5.95483 11.4608
1 4.84155 4.41352 11.8892
1 10.364 4.47868 2.70397
1 6.22626 10.8055 7.97393
1 11.4604 9.14285 0.994912
1 2.67109 8.73551 8.18724
1 12.0578 8.19232 8.89717
1 11.174 8.59153 5.85071
1 1.14041 11.1282 10.1854
1 7.98521 9.70069 4.69926
96
 Atoms. Timestep: 14000
2 1.84568 3.97254 7.96636
2 0.573516 1.36862 9.3864
2 9.3525 8.49286 5.29873
2 7.78131 9.96472 12.6588
2 3.84297 5.41306 8.37561
2 8.30502 10.5433 2.94073
2 8.89306 6.33721 7.75345
2 4.19811 11.5193 11.7898
2 6.54716 5.21974 6.95971
2 3.83972 0.696102 3.17349
2 10.8225 3.09748 8.14746
2 6.05906 4.36748 4.51873
2 4.1178 7.71836 5.56202
2 9.00049 11.7684 12.2151
2 11.658 3.3456 2.03835
2 3.65478 0.965518 5.62784
2 10.6737 6.74244 5.10099
2 10.7943 0.782123 10.1838
2 10.7709 6.54021 9.76298
2 7.34974 2.12501 3.79261
2 6.22398 9.15969 4.79555
2 8.60431 4.04003 3.63009
2 2.2162 5.77928 5.73524
2 5.93571 11.2678 1.90743
2 6.87718 7.03428 9.27048
2 3.34221 9.9664 2.53147
2 3.74009 4.08703 11.2326
2 10.2878 2.62827 3.27108
2 2.61517 9.60773 8.28308
2 8.10028 1.67038 1.77689
2 9.85265 1.90756 6.25905
2 2.07455 2.67208 3.95932
2 4.68866 4.606 6.32158
2 8.76166 6.85795 11.985
2 3.76633 7.34914 9.26366
2 4.9992 0.457528 8.47009
2 1.15034 4.55582 3.97519
2 3.41623 2.29868 12.9605
2 2.22944 8.27049 3.90623
2 7.99309 9.9754 10.4264
2 1.1521 8.87498 1.11869
2 2.46036 7.1855 7.12661
2 3.77204 11.0812 10.2838
2 11.1143 10.3639 4.4363
2 11.4817 7.1997 11.525
2 11.056 8.37925 7.08605
2 1.68876 9.13031 10.5106
2 7.95555 11.9692 7.42079
2 10.4689 4.42834 11.6587
2 7.0168 9.7843 8.64408
2 3.25453 7.38531 1.8918
2 4.86108 3.9336 2.12622
2 11.6508 2.71609 5.21909
2 3.52704 11.5741 6.84892
2 9.83497 8.96808 12.7389
2 7.73133 6.23843 5.05189
2 11.1974 10.0931 11.0673
2 10.6662 4.77418 5.69478
2 1.88344 4.31249 1.20483
2 8.1839 8.23693 2.32547
2 9.3489 8.11902 8.9858
2 9.25376 11.3548 4.46977
2 1.45507 3.49589 10.8336
2 1.06236 9.80338 5.88882
1 2.81622 5.13236 7.11467
1 4.4586 11.2385 1.82413
1 3.95489 5.40693 10.1134
1 8.59157 2.33799 3.00581
1 5.42216 7.682 4.76056
1 7.45019 11.3334 1.41989
1 0.641334 5.82545 5.07071
1 3.49424 1.98896 4.09011
1 1.01995 2.92974 9.06987
1 5.5537 3.0445 3.36931
1 6.75447 5.51494 8.42624
1 9.07095 11.8955 6.30678
1 5.91692 5.68021 5.51158
1 8.02488 5.75196 3.26462
1 2.54941 8.39803 5.82975
1 9.76164 10.8811 10.7574
1 8.37633 8.29832 0.477871
1 3.48415 10.9101 8.37057
1 9.9914 3.42016 6.77899
1 9.25675 6.9536 5.97498
1 2.40282 8.90626 2.28727
1 7.46711 8.46813 9.45904
1 9.97347 6.10052 11.2215
1 3.40569 4.08509 0.813496
1 11.9531 3.10833 3.60058
1 6.60148 11.3735 8.02449
1 11.5761 8.81627 11.9096
1 2.27473 8.18627 8.95903
1 10.6978 7.73664 8.44777
1 10.7369 9.53516 5.90294
1 11.9142 3.84966 12.3768
1 8.57578 9.1687 3.75218
96
 Atoms. Timestep: 16000
2 2.55814 3.42761 8.72225
2 0.729148 5.75881 9.09999
2 10.1261 8.67318 3.91814
2 7.74204 11.2255 1.07232
2 4.43853 5.48965 10.0078
2 7.75268 9.20301 4.14771
2 8.10782 4.89829 5.30926
2 3.25476 9.68087 12.0733
2 7.37669 5.50612 7.11937
2 1.31374 0.344067 5.23773
2 0.971763 1.87369 7.36306
2 6.17651 4.52924 3.56264
2 5.31122 8.84835 4.6898
2 7.77751 0.878225 11.3501
2 -0.143718 3.0663 0.221122
2 2.50919 9.01934 5.59667
2 10.1485 4.55658 5.73931
2 11.2434 10.1511 5.10756
2 11.6822 3.54249 10.499
2 8.22758 4.79578 1.7149
2 6.16019 9.73678 7.15658
2 8.74147 6.43763 12.0184
2 3.72224 5.34779 7.46395
2 5.21731 11.2078 12.5188
2 7.30508 9.21817 0.143711
2 2.68418 11.0622 1.09795
2 5.15573 5.55426 12.6088
2 9.00186 2.05926 2.20652
2 2.45261 9.74209 9.54324
2 6.79059 1.61419 1.54342
2 10.1139 1.13342 7.47457
2 1.53181 10.032 3.92162
2 4.12722 6.89666 6.34649
2 11.4991 5.639 0.718866
2 3.75588 7.74976 11.7515
2 4.15091 11.4792 8.69039
2 10.7843 3.15758 3.04213
2 5.49182 3.33348 1.85134
2 3.04443 8.54082 3.52066
2 9.07516 11.6224 9.25765
2 0.77189 10.0569 1.39833
2 2.10361 5.30539 9.63027
2 3.01051 11.6687 10.8141
2 9.40633 7.13771 5.78929
2 1.46173 7.8531 11.9097
2 10.3148 8.24913 7.27839
2 0.976816 9.86654 11.258
2 7.22551 11.9236 8.15741
2 1.61691 5.28245 11.088
2 5.91228 9.74219 9.97689
2 9.96072 3.92673 1.22105
2 2.9784 5.70017 1.14157
2 11.2527 0.215976 1.34564
2 1.00378 11.2812 7.74346
2 10.3842 10.0788 12.6457
2 8.65936 6.50713 3.4881
2 10.8467 12.3159 11.691
2 11.7874 2.86852 5.6601
2 2.71224 3.70074 12.9805
2 8.39346 9.32484 2.21996
2 9.589 4.50947 8.10246
2 9.11257 10.1212 6.29704
2 1.75574 1.93816 10.5787
2 4.56938 6.76041 3.89023
1 3.48798 4.85812 8.97368
1 3.66594 11.2679 12.1953
1 4.67994 6.55106 11.5949
1 7.46292 3.0796 1.91402
1 6.53587 9.73348 5.54556
1 6.51037 12.3171 12.731
1 11.1747 4.13857 4.63594
1 1.22861 10.4157 5.45929
1 1.67655 1.90951 9.00927
1 4.7469 5.27507 3.37018
1 9.01579 5.70121 6.79155
1 8.98215 11.7371 7.57056
1 5.59426 6.00624 6.93434
1 9.32115 5.43823 0.891877
1 3.83203 8.08282 5.12264
1 9.34174 12.2726 10.9553
1 8.61759 9.93558 0.685911
1 2.49145 11.3446 8.93779
1 11.5575 1.24741 6.37811
1 7.89343 4.89379 3.6185
1 2.21259 9.78163 2.29683
1 6.0115 9.179 11.617
1 1.43816 5.92834 12.6351
1 4.3621 4.57186 1.25825
1 10.8679 2.05493 1.58838
1 5.87341 10.9598 8.35327
1 12.0522 10.9282 12.5727
1 2.59601 8.67486 10.9032
1 10.4362 4.10279 9.6452
1 9.89914 8.95495 5.68657
1 1.54448 3.32976 11.6363
1 8.77953 8.04387 3.17356
96
 Atoms. Timestep: 18000
2 2.77995 3.44979 8.79678
2 6.16619 11.7895 9.43136
2 8.18754 8.21293 4.41122
2 6.1554 10.7329 0.884537
2 2.89942 5.5508 10.2245
2 6.90066 3.76479 8.35929
2 8.88283 5.67927 5.13873
2 9.18666 9.69692 11.4006
2 6.77716 6.4393 7.27121
2 1.17072 10.361 4.32608
2 0.920122 0.938124 7.49217
2 7.17547 6.12357 2.98122
2 6.00035 3.60866 5.55537
2 7.86431 11.3351 11.6143
2 1.17887 11.8896 12.1136
2 3.86143 9.22612 4.2548
2 8.46084 3.92413 6.94862
2 10.7464 9.88857 5.26635
2 11.4173 2.96203 0.363527
2 8.49787 3.64491 0.655756
2 5.45403 1.44861 7.08465
2 11.0644 6.57698 9.25391
2 4.35036 6.26054 7.26721
2 4.96729 10.8916 11.0543
2 4.80446 6.8567 2.5262
2 2.73837 9.85279 11.6204
2 4.94029 4.26588 1.72148
2 8.71337 1.20194 0.936519
2 1.62292 9.84692 6.61029
2 6.34992 1.58302 11.994
2 10.5196 11.1105 6.96793
2 3.45395 11.0531 2.43392
2 5.5365 8.28778 5.86426
2 3.46409 8.70837 2.31767
2 2.43443 6.87034 0.911442
2 4.38463 10.1973 7.16793
2 8.83673 1.53136 7.11266
2 6.20622 2.72901 1.73813
2 6.56823 10.2791 3.67265
2 8.07911 2.15087 9.7948
2 1.34009 10.1081 2.01801
2 1.72542 6.17034 7.50526
2 3.18982 8.71889 9.04826
2 8.80694 7.46531 6.42743
2 10.3365 7.27439 12.0679
2 10.9836 8.10364 6.29597
2 10.491 10.1616 1.57303
2 7.24176 10.833 7.19569
2 11.6392 6.03137 3.86383
2 10.784 5.15245 12.6015
2 0.53597 1.92152 4.6289
2 4.10714 0.98597 2.04272
2 11.2302 1.30541 2.74474
2 4.19055 4.17591 7.55901
2 8.40801 11.7168 2.83525
2 10.5503 3.43118 2.82433
2 9.612 11.1288 10.8044
2 1.00561 0.729643 5.42288
2 2.84401 2.04378 0.774276
2 7.73401 9.40255 2.14832
2 10.1816 6.01603 6.92688
2 8.80697 10.1231 5.78395
2 1.51288 2.01397 10.6452
2 3.72623 7.7032 11.6362
1 2.85238 5.34896 8.27228
1 3.93464 9.14221 10.8223
1 1.81565 5.89542 11.7165
1 7.48801 2.28112 0.974521
1 5.5559 3.32895 7.17402
1 6.25429 11.4479 11.2114
1 8.42042 2.739 8.00708
1 2.41892 9.67747 3.46154
1 1.70914 2.04847 8.94607
1 5.58403 5.37387 2.76924
1 8.36073 5.58253 6.82688
1 8.89314 11.3718 6.92921
1 5.52501 7.20206 6.85571
1 9.96667 3.72426 0.952367
1 5.6597 8.75687 4.26987
1 8.77387 0.991051 10.7558
1 7.15402 10.8309 2.26971
1 3.05958 9.59273 7.4743
1 0.598847 10.8461 6.03794
1 8.64814 5.09824 3.55514
1 1.95048 10.7481 0.424294
1 11.0782 6.30814 10.9186
1 3.8359 7.60136 1.22917
1 4.27486 2.72715 1.73486
1 0.773763 2.88631 3.20127
1 5.80468 11.5476 7.81535
1 10.0315 12.136 1.85015
1 9.7348 8.70901 12.6548
1 11.5685 6.91182 7.55384
1 9.3878 8.69917 5.14421
1 1.1799 1.85638 12.4096
1 7.22326 7.83426 2.84797
96
 Atoms. Timestep: 20000
2 2.36487 4.42484 9.04181
2 5.24169 0.891294 8.61759
2 5.00176 5.9693 4.63026
2 4.24451 10.2719 0.507613
2 4.0114 5.42288 9.60573
2 7.2371 3.51677 6.93385
2 8.21675 6.29247 5.13299
2 12.0426 9.75613 10.7418
2 7.35112 7.11509 6.79477
2 1.03263 8.20165 4.41166
2 1.52023 1.90928 7.61789
2 7.23168 6.25215 2.8977
2 4.33375 3.82536 4.72542
2 10.5615 11.9242 11.0369
2 11.5189 0.281897 2.1867
2 3.68718 6.72285 6.64153
2 9.2231 4.83898 7.41949
2 11.2889 10.5624 7.30846
2 0.587351 3.4466 12.7564
2 9.59523 3.07131 11.8729
2 5.04129 1.93018 6.41858
2 11.6932 6.45752 11.2293
2 5.55987 6.73752 8.45698
2 3.73175 11.5058 10.7391
2 4.45903 5.72463 2.315
2 2.03436 9.72561 12.8573
2 5.21249 3.51809 2.0129
2 7.76878 1.14006 11.5234
2 2.19671 10.2249 7.65681
2 5.42565 2.21839 11.1895
2 9.11439 11.5921 8.88554
2 3.03502 8.6214 5.23023
2 5.44828 8.01923 6.40999
2 3.2845 8.48801 2.38558
2 3.94992 7.00244 12.5364
2 4.3703 10.6094 7.13765
2 7.91569 1.44665 7.28451
2 6.92744 3.12109 12.2848
2 9.14123 7.57539 0.857754
2 9.89768 2.0758 8.99284
2 1.78074 9.94562 2.65723
2 2.35034 6.71033 8.93612
2 3.41058 9.5913 9.96601
2 10.3049 7.45851 6.31534
2 10.4523 8.48608 11.6351
2 1.55947 8.60696 10.6813
2 9.18155 10.4678 12.2253
2 6.62127 11.2339 6.71943
2 11.6909 8.70857 5.52054
2 10.0348 5.14083 0.91075
2 9.79349 10.5001 2.82265
2 4.91042 1.38741 1.53042
2 8.27307 12.063 1.74995
2 4.1799 4.59816 7.24053
2 6.00633 11.1755 12.6868
2 10.0667 2.32847 1.64598
2 0.447964 12.1347 8.81087
2 0.975251 11.1768 5.75148
2 3.80989 3.54614 12.8345
2 8.01041 2.98735 9.35785
2 6.35106 3.87807 5.07227
2 9.22248 10.6304 6.35908
2 2.13768 2.90698 10.519
2 6.02144 8.14863 1.76579
1 3.65165 5.95081 8.16297
1 3.16991 10.2498 11.7489
1 3.37378 5.59282 11.2546
1 8.2305 2.75842 11.083
1 5.34448 3.62462 6.27682
1 4.73567 1.1905 9.99935
1 8.64083 2.67531 7.76819
1 2.44555 8.95578 3.80358
1 2.56133 2.61603 8.64575
1 4.69061 4.5631 3.19966
1 8.75435 6.09935 6.62467
1 8.10715 11.4437 7.58063
1 6.57324 7.94215 7.87527
1 10.7267 3.60163 1.2142
1 4.16428 7.56529 5.50799
1 10.8081 0.762807 9.43784
1 5.11253 11.0775 1.88763
1 3.59857 9.49123 8.16089
1 1.04136 11.7402 7.24562
1 6.87829 5.37053 4.20738
1 0.9317 10.5367 1.39845
1 10.1595 6.74459 12.5448
1 4.42532 7.41497 1.91047
1 5.38604 2.92959 12.7179
1 9.7126 0.548305 2.51512
1 5.16292 11.9244 6.95428
1 7.61956 11.6244 12.5608
1 10.9524 10.1516 11.857
1 1.57115 7.12677 10.4682
1 10.4276 9.45499 6.54498
1 2.13928 3.50145 12.0694
1 7.70777 7.7956 2.1026
96
 Atoms. Timestep: 22000
2 2.15758 3.67299 7.73022
2 5.68386 0.885924 9.33166
2 4.8324 7.54446 4.87616
2 4.72141 8.77616 11.1472
2 5.89039 4.28213 8.64135
2 7.93493 3.47401 7.66994
2 7.76868 7.10521 6.19766
2 10.931 8.44692 10.922
2 6.57438 6.07491 9.1762
2 4.50886 11.4075 6.00121
2 1.46725 1.21836 8.27299
2 7.77164 6.67882 4.21251
2 3.39686 6.49489 2.8952
2 11.4094 10.9048 10.1178
2 10.8341 1.2391 3.43049
2 2.7359 5.65112 5.40011
2 9.07805 4.70853 8.7568
2 10.5108 7.88701 6.13439
2 1.24151 3.92777 11.2166
2 9.4319 3.75232 1.55432
2 6.29138 1.79296 7.2295
2 3.19574 6.21702 12.0399
2 3.96486 6.3299 7.3961
2 2.34599 9.35641 11.673
2 4.60097 8.27029 1.54704
2 0.780239 2.51809 1.37598
2 4.9847 5.03196 1.53081
2 7.84321 1.64641 0.706656
2 0.516105 1.35831 5.82567
2 4.78311 2.54455 10.3979
2 9.80243 11.2968 8.32656
2 1.84663 7.96839 5.15373
2 5.84686 7.23951 6.84833
2 3.20545 4.81158 10.1348
2 6.08521 5.40016 11.2275
2 4.25563 11.1853 8.40048
2 7.92331 1.44998 8.82665
2 6.62444 3.4236 1.12708
2 9.7888 6.57945 2.34631
2 10.4138 2.3549 8.93605
2 1.89762 1.25403 3.86407
2 1.10547 6.24831 9.71406
2 3.50021 9.77616 8.8908
2 9.05205 7.77428 7.99884
2 8.81998 6.52274 10.9593
2 2.76623 7.35223 10.2008
2 9.28429 10.9471 11.3774
2 6.88764 11.0646 7.41082
2 9.53194 11.9586 6.23825
2 10.8699 6.20726 12.5077
2 9.69471 11.0825 4.48644
2 4.9056 1.54728 12.1576
2 8.63651 11.2581 2.19027
2 4.6836 3.96998 6.64275
2 6.90769 10.1081 12.4223
2 11.7926 4.17154 2.91189
2 11.9447 10.2583 6.06892
2 2.79583 2.07935 6.11674
2 3.48182 2.7078 1.14976
2 8.39626 2.81802 10.8967
2 6.67794 5.05906 5.68315
2 8.29446 9.577 6.70082
2 2.6559 1.19629 11.5811
2 7.62333 6.9872 1.2418
1 3.475 4.86611 6.58821
1 3.33762 8.92029 10.1573
1 5.05982 4.34085 10.3079
1 8.22498 3.17485 0.778171
1 6.56824 3.81459 6.88602
1 4.75372 0.904083 10.7213
1 8.66637 3.25248 9.22359
1 3.37899 0.952307 5.2911
1 1.45693 2.37033 7.14026
1 3.92817 6.64943 1.45437
1 8.28919 6.25966 9.22286
1 8.39407 11.4846 7.74358
1 5.27296 6.91019 8.44352
1 10.4558 5.17223 1.72458
1 3.11228 7.01019 4.42992
1 11.1254 0.935133 9.15935
1 5.23158 9.35338 12.355
1 11.0369 11.5702 5.89336
1 11.7158 8.63055 5.61398
1 6.49597 6.72365 5.24147
1 0.597818 2.37094 2.95716
1 10.3164 6.78328 11.0142
1 7.39419 5.9937 11.8234
1 5.0332 3.43991 0.987103
1 10.2318 11.3179 2.85812
1 5.45355 11.7479 7.52223
1 8.10697 11.3977 12.4029
1 10.4086 10.0028 11.0431
1 2.01047 5.85311 11.1468
1 8.98329 8.11128 6.42801
1 1.79299 2.71478 12.2245
1 8.24656 6.81102 2.71245
96
 Atoms. Timestep: 24000
2 11.8367 5.12566 7.37555
2 5.75092 1.74496 9.37262
2 4.18373 8.52845 4.96891