LAMMPS (2 Aug 2023 - Update 3)
units metal
boundary p p p
atom_style full
pair_style tersoff
neighbor 2.0 bin
neigh_modify delay 1




read_data SiO.data
Reading data file ...
  orthogonal box = (0 0 0) to (12.589463 12.589463 13.222096)
  1 by 1 by 1 MPI processor grid
WARNING: Atom style in data file atom-ID molecule-ID atom-type q x y z differs from currently defined atom style full (../read_data.cpp:621)
  reading atoms ...
  96 atoms
Finding 1-2 1-3 1-4 neighbors ...
  special bond factors lj:    0        0        0       
  special bond factors coul:  0        0        0       
     0 = max # of 1-2 neighbors
     0 = max # of 1-3 neighbors
     0 = max # of 1-4 neighbors
     1 = max # of special neighbors
  special bonds CPU = 0.000 seconds
  read_data CPU = 0.003 seconds
replicate 1 1 1
Replication is creating a 1x1x1 = 1 times larger system...
  orthogonal box = (0 0 0) to (12.589463 12.589463 13.222096)
  1 by 1 by 1 MPI processor grid
  96 atoms
Finding 1-2 1-3 1-4 neighbors ...
  special bond factors lj:    0        0        0       
  special bond factors coul:  0        0        0       
     0 = max # of 1-2 neighbors
     0 = max # of 1-3 neighbors
     0 = max # of 1-4 neighbors
     1 = max # of special neighbors
  special bonds CPU = 0.000 seconds
  replicate CPU = 0.001 seconds

pair_coeff * *  /root/Desktop/host/job1/SiO.tersoff Si O
Reading tersoff potential file /root/Desktop/host/job1/SiO.tersoff with DATE: 2010-08-16



group Si type 1
32 atoms in group Si
group O type 2
64 atoms in group O
#create_bonds many SiO SiO 1 0.5 10

dump dmp all xyz 2000 dump.lammpstrj



variable apot equal pe
# first number: number of steps to get current temp
# second number: calculate average n number of temp read above.
# third number: temp record (this must be larger than the one above )

variable atemp equal temp
fix temp_info all ave/time 10 200 2000 v_atemp file temperature.dat

#The cutoff used for pairwise computation (any pair style) and the
#associated neighbor list is the maximum cutoff that any compute
#can use. Atoms don't know any info about their neighbors
#further away than that.

# compute coord number
compute coor12 Si coord/atom cutoff 2.5 group O
compute coor11 Si coord/atom cutoff 2.5 group Si
compute coor22 O coord/atom cutoff 2.0 group O

compute sumcoor12 all reduce ave c_coor12
compute sumcoor11 all reduce ave c_coor11
compute sumcoor22 all reduce ave c_coor22


fix 12coord all ave/time  10 200 2000 c_sumcoor12 file Si-O_coord_number.dat
fix 11coord all ave/time  10 200 2000  c_sumcoor11 file Si-Si_coord_number.dat
fix 22coord all ave/time  10 200 2000  c_sumcoor22 file O-O_coord_number.dat




# unit cell information
variable avol equal vol
variable alx equal lx
variable aly equal ly
variable alz equal lz
fix cell_info all ave/time 10 200 2000 v_avol v_alx v_aly v_alz file cell_volume.dat


fix potential_info all ave/time 10 200 2000 v_apot file potential-energy.dat
thermo 1000



velocity all create 6000 994527 mom yes rot no dist gaussian
fix npt1 all npt temp 6000 5000 0.1 iso 0 0  1
timestep 0.001
#run 500
run 80000
Neighbor list info ...
  update: every = 1 steps, delay = 1 steps, check = yes
  max neighbors/atom: 2000, page size: 100000
  master list distance cutoff = 4.8
  ghost atom cutoff = 4.8
  binsize = 2.4, bins = 6 6 6
  4 neighbor lists, perpetual/occasional/extra = 1 3 0
  (1) pair tersoff, perpetual
      attributes: full, newton on
      pair build: full/bin
      stencil: full/bin/3d
      bin: standard
  (2) compute coord/atom, occasional, copy from (1)
      attributes: full, newton on
      pair build: copy
      stencil: none
      bin: none
  (3) compute coord/atom, occasional, copy from (1)
      attributes: full, newton on
      pair build: copy
      stencil: none
      bin: none
  (4) compute coord/atom, occasional, copy from (1)
      attributes: full, newton on
      pair build: copy
      stencil: none
      bin: none
Per MPI rank memory allocation (min/avg/max) = 6.021 | 6.021 | 6.021 Mbytes
   Step          Temp          E_pair         E_mol          TotEng         Press          Volume    
         0   6000          -638.06385      0             -564.38556      73800.118      2095.6304    
      1000   5885.3374     -545.78857      0             -473.51831      8709.1493      2214.0662    
      2000   5270.4069     -547.02031      0             -482.30122     -27276.292      2357.1993    
      3000   5827.635      -556.87656      0             -485.31487     -28664.16       2410.8007    
      4000   5673.2558     -552.72578      0             -483.05983     -11959.955      2227.166     
      5000   5833.2972     -535.73375      0             -464.10253      6344.4254      2196.9182    
      6000   5473.7991     -538.44589      0             -471.2292      -37318.812      1978.5996    
      7000   6107.9271     -527.06554      0             -452.06194      9535.2779      1935.6964    
      8000   6501.8263     -534.54821      0             -454.70764      22206.716      1846.1974    
      9000   6062.6129     -520.96391      0             -446.51676     -28330.257      2109.1624    
     10000   5580.0114     -528.25201      0             -459.73107      893.62676      1650.5025    
     11000   6020.5912     -526.58102      0             -452.64989     -26865.262      1774.9941    
     12000   5448.9324     -540.92705      0             -474.01572      27789.974      1573.1635    
     13000   4947.7254     -526.91248      0             -466.15582     -78387.502      1529.8306    
     14000   6240.3385     -514.94376      0             -438.31418     -685.25763      1540.7454    
     15000   6192.5015     -528.08793      0             -452.04578      53500.767      1568.4687    
     16000   6775.9646     -521.99474      0             -438.78783     -43979.211      1706.3459    
     17000   6704.86       -532.5073       0             -450.17354     -144.74021      1465.3676    
     18000   5313.6568     -520.13452      0             -454.88434     -2504.4555      1613.1372    
     19000   6188.7227     -530.69792      0             -454.70218      12480.823      1475.7811    
     20000   5948.7589     -528.73476      0             -455.68571     -14730.784      1658.4898    
     21000   6030.4378     -529.37087      0             -455.31882      53492.818      1514.7763    
     22000   5623.2991     -538.44913      0             -469.39663     -5603.4925      1560.7205    
     23000   5331.103      -520.3087       0             -454.84428      42.725572      1743.4072    
     24000   6022.4443     -542.43523      0             -468.48134      22718.228      1537.4967    
     25000   5013.8094     -533.61418      0             -472.04604     -25980.905      1873.9248    
     26000   5724.4297     -537.63827      0             -467.34392     -54156.399      1748.5988    
     27000   6188.1185     -541.21977      0             -465.23145      39447.021      1502.3277    
     28000   5279.9516     -534.08077      0             -469.24447      88698.953      1568.7391    
     29000   5834.2688     -537.60045      0             -465.95729      1360.1189      1692.5375    
     30000   5740.549      -545.04651      0             -474.55421      36357.398      1514.2694    
     31000   5618.9589     -530.02247      0             -461.02326     -587.58211      1697.456     
     32000   5367.2137     -552.49366      0             -486.58582     -9755.0423      1511.2215    
     33000   5427.1108     -552.53309      0             -485.88972      6151.6752      1604.6307    
     34000   6509.7968     -548.9865       0             -469.04805     -7160.5173      1627.6301    
     35000   5743.1492     -548.45094      0             -477.92672     -19608.069      1672.0363    
     36000   5954.0645     -536.39658      0             -463.28237     -17650.63       1704.0147    
     37000   5569.5605     -551.82428      0             -483.43167      34714.749      1504.3652    
     38000   5317.8072     -535.22705      0             -469.9259       36470.598      1597.4821    
     39000   5866.8892     -561.9405       0             -489.89678     -10270.034      1540.9568    
     40000   6339.5977     -548.56388      0             -470.71543      22747.337      1485.2022    
     41000   5626.0756     -557.38008      0             -488.29348      68414.459      1520.2384    
     42000   5343.9399     -548.30275      0             -482.6807       7246.2794      1554.7679    
     43000   5729.6953     -554.63995      0             -484.28093      8956.7195      1537.4912    
     44000   5507.5533     -563.55468      0             -495.9235      -34671.696      1583.6863    
     45000   4795.1115     -559.18794      0             -500.30535      55970.286      1480.9935    
     46000   5403.1366     -550.55511      0             -484.20614      30278.176      1443.6955    
     47000   5163.2035     -558.94813      0             -495.54547      33138.831      1459.4227    
     48000   5961.1694     -545.7254       0             -472.52395      21235.283      1465.7451    
     49000   5781.4401     -549.72518      0             -478.73075     -16891.069      1508.2633    
     50000   5843.4003     -550.53615      0             -478.78087     -13158.709      1477.5543    
     51000   4966.5887     -552.24341      0             -491.25512      72448.249      1331.307     
     52000   6027.7592     -557.03503      0             -483.01588     -23127.758      1408.4069    
     53000   5054.321      -543.34794      0             -481.28232     -4186.8549      1509.8404    
     54000   5501.9783     -552.59228      0             -485.02957      38971.59       1452.0636    
     55000   5330.1934     -549.55093      0             -484.09768     -50324.296      1505.4354    
     56000   5400.4767     -546.20235      0             -479.88604     -35727.804      1417.8677    
     57000   5665.2163     -543.34528      0             -473.77805      46702.289      1447.197     
     58000   5723.2183     -550.21374      0             -479.93426     -29859.086      1546.3793    
     59000   5471.0769     -557.95369      0             -490.77044      7660.7744      1513.9045    
     60000   5305.1183     -552.13931      0             -486.99398      14924.667      1431.5784    
     61000   4931.1178     -544.72828      0             -484.17556      8477.5536      1412.4745    
     62000   4792.7772     -557.56463      0             -498.7107       18048.813      1562.3035    
     63000   4927.7275     -546.44119      0             -485.9301      -44302.758      1524.6424    
     64000   5686.4631     -549.02029      0             -479.19216      9965.9543      1603.3169    
     65000   6173.5449     -547.00106      0             -471.1917       42767.047      1650.1939    
     66000   5733.044      -562.72233      0             -492.32219      11064.136      1359.8097    
     67000   4761.2968     -561.21231      0             -502.74495     -16613.055      1414.0685    
     68000   5760.3878     -555.42546      0             -484.68955      6670.0565      1509.9067    
     69000   4998.7137     -552.07068      0             -490.68791      36753.246      1342.2813    
     70000   4607.7052     -552.4841       0             -495.9028       8379.0721      1486.4761    
     71000   4543.0581     -558.54449      0             -502.75704     -35533.111      1532.0034    
     72000   4812.9272     -556.02832      0             -496.92695     -95335.204      1559.714     
     73000   5460.3803     -556.97083      0             -489.91892     -11585.953      1542.9595    
     74000   5667.2609     -550.39995      0             -480.80761     -10034.832      1507.4403    
     75000   4578.0444     -545.8485       0             -489.63143     -63381.088      1469.9684    
     76000   5300.9917     -556.16396      0             -491.0693      -35019.557      1645.4103    
     77000   4657.449      -559.6124       0             -502.42026     -41929.76       1520.6831    
     78000   5129.3478     -545.94457      0             -482.95765      36174.372      1505.2251    
     79000   4353.102      -549.70101      0             -496.24616     -64286.261      1591.0939    
     80000   5342.9764     -544.86991      0             -479.25969     -6254.0073      1614.2078    
Loop time of 7.22718 on 1 procs for 80000 steps with 96 atoms

Performance: 956.390 ns/day, 0.025 hours/ns, 11069.331 timesteps/s, 1.063 Matom-step/s
98.2% CPU use with 1 MPI tasks x no OpenMP threads

MPI task timing breakdown:
Section |  min time  |  avg time  |  max time  |%varavg| %total
---------------------------------------------------------------
Pair    | 6.0235     | 6.0235     | 6.0235     |   0.0 | 83.35
Bond    | 0.0028191  | 0.0028191  | 0.0028191  |   0.0 |  0.04
Neigh   | 0.47283    | 0.47283    | 0.47283    |   0.0 |  6.54
Comm    | 0.21483    | 0.21483    | 0.21483    |   0.0 |  2.97
Output  | 0.01049    | 0.01049    | 0.01049    |   0.0 |  0.15
Modify  | 0.46198    | 0.46198    | 0.46198    |   0.0 |  6.39
Other   |            | 0.0407     |            |       |  0.56

Nlocal:             96 ave          96 max          96 min
Histogram: 1 0 0 0 0 0 0 0 0 0
Nghost:            460 ave         460 max         460 min
Histogram: 1 0 0 0 0 0 0 0 0 0
Neighs:              0 ave           0 max           0 min
Histogram: 1 0 0 0 0 0 0 0 0 0
FullNghs:         2604 ave        2604 max        2604 min
Histogram: 1 0 0 0 0 0 0 0 0 0

Total # of neighbors = 2604
Ave neighs/atom = 27.125
Ave special neighs/atom = 0
Neighbor list builds = 3761
Dangerous builds = 0

fix npt1 all npt temp 5000 4000 0.1 iso 0 0 1
run 80000
Per MPI rank memory allocation (min/avg/max) = 8.549 | 8.549 | 8.549 Mbytes
   Step          Temp          E_pair         E_mol          TotEng         Press          Volume    
     80000   5342.9764     -544.86991      0             -479.25969     -6254.0073      1614.2078    
     81000   4754.3011     -559.75037      0             -501.36891      16203.008      1375.2214    
     82000   4447.3278     -556.06759      0             -501.45568      6824.4414      1623.8324    
     83000   5252.2286     -559.00138      0             -494.50552     -4383.7838      1493.3913    
     84000   4834.5571     -558.39089      0             -499.02391     -14280.436      1524.3465    
     85000   4935.0918     -542.14256      0             -481.54105      46509.9        1476.0273    
     86000   5284.7264     -552.84926      0             -487.95433      6481.1052      1556.6189    
     87000   5019.2714     -557.44255      0             -495.80734     -12027.377      1491.9482    
     88000   5158.174      -556.68676      0             -493.34586     -4214.2182      1510.0038    
     89000   5235.5555     -557.41554      0             -493.12441     -39788.374      1508.8691    
     90000   4432.2176     -564.30727      0             -509.88091      35726.98       1460.5748    
     91000   5995.3121     -560.93201      0             -487.31129     -14434.518      1353.3554    
     92000   5168.2723     -556.58695      0             -493.12205      34424.508      1406.5074    
     93000   5490.3221     -571.71597      0             -504.29639      29118.249      1380.8277    
     94000   5027.6009     -559.48812      0             -497.75062      3359.4199      1396.7578    
     95000   4442.1884     -548.70638      0             -494.15758     -30239.734      1438.9754    
     96000   4207.8601     -572.55632      0             -520.885        29951.477      1424.7811    
     97000   4964.6521     -558.18696      0             -497.22245     -61841.712      1522.388     
     98000   4759.9833     -555.30789      0             -496.85666     -8723.365       1411.9977    
     99000   5285.9735     -554.32339      0             -489.41315     -13905.023      1373.5704    
    100000   4855.091      -558.99651      0             -499.37738      21783.87       1326.7036    
    101000   3828.2951     -554.21385      0             -507.20348     -91293.526      1312.6122    
    102000   5193.1243     -553.75816      0             -489.98807     -26249.336      1393.1044    
    103000   5168.6978     -561.15464      0             -497.68451     -5210.6689      1485.8716    
    104000   3956.8307     -561.81338      0             -513.22463      14392.629      1498.8005    
    105000   4802.1317     -560.07756      0             -501.10876      331.55265      1409.8344    
    106000   4788.7892     -562.4612       0             -503.65624     -59216.551      1530.4469    
    107000   4907.7493     -558.48006      0             -498.2143      -40873.184      1472.6277    
    108000   4473.5097     -575.05472      0             -520.1213      -3594.3878      1477.0035    
    109000   4898.5793     -568.95745      0             -508.8043      -62318.199      1544.4444    
    110000   3829.7824     -557.18109      0             -510.15246     -27415.153      1516.3734    
    111000   4650.7478     -567.04403      0             -509.93418      13655.84       1495.1822    
    112000   4081.5719     -564.27571      0             -514.15518      5399.3121      1489.1322    
    113000   4386.1038     -556.48534      0             -502.62524      44547.823      1475.0667    
    114000   4807.1559     -564.75577      0             -505.72528      24243.097      1449.0504    
    115000   3911.6319     -559.22196      0             -511.18824     -32239.042      1498.9311    
    116000   4948.1151     -563.16099      0             -502.39956     -5875.8516      1475.832     
    117000   4558.3572     -565.92552      0             -509.9502      -41129.371      1441.9669    
    118000   4246.8021     -567.64769      0             -515.49817      7578.0684      1436.0346    
    119000   4040.2273     -568.83053      0             -519.2177       5027.748       1324.6161    
    120000   5019.8223     -568.97294      0             -507.33096      23316.06       1438.9439    
    121000   4721.2922     -574.99228      0             -517.01616     -18458.789      1518.6817    
    122000   4822.8614     -560.34115      0             -501.11779      20989.931      1563.3929    
    123000   4004.5793     -566.2124       0             -517.03731     -3195.0302      1672.9857    
    124000   4416.7102     -561.71597      0             -507.48003     -40863.458      1660.2762    
    125000   4050.6774     -565.82397      0             -516.08281      23522.423      1566.8859    
    126000   4805.3106     -564.62393      0             -505.61609      46045.926      1538.4075    
    127000   4573.1772     -572.09066      0             -515.93336     -52495.939      1560.5385    
    128000   4265.8659     -572.35073      0             -519.96712     -13857.674      1551.9066    
    129000   4308.8293     -575.48614      0             -522.57495      19521.387      1621.1841    
    130000   4753.9114     -559.02627      0             -500.6496       18498.956      1627.5494    
    131000   3835.8587     -562.4273       0             -515.32405     -14987.273      1621.1728    
    132000   4271.3437     -574.28168      0             -521.8308      -23127.578      1635.8794    
    133000   3499.1455     -560.81712      0             -517.84862      29788.643      1494.7335    
    134000   4988.3404     -566.02835      0             -504.77296     -6170.9969      1514.6116    
    135000   4809.8077     -569.09081      0             -510.02774      13722.48       1388.4732    
    136000   4288.8059     -565.66955      0             -513.00425      12776.009      1430.6589    
    137000   3646.0753     -567.78898      0             -523.01621      30864.412      1457.753     
    138000   4190.6581     -566.76535      0             -515.30527      9047.8376      1415.4055    
    139000   5034.5259     -573.97996      0             -512.15743      16284.661      1475.0871    
    140000   4498.5444     -570.86288      0             -515.62204     -28099.07       1522.0088    
    141000   4211.1799     -576.97994      0             -525.26786     -38482.77       1520.2154    
    142000   4447.6644     -573.26194      0             -518.6459       28101.122      1385.0571    
    143000   4026.8697     -557.23226      0             -507.78345     -16555.979      1462.0767    
    144000   4705.3697     -568.80251      0             -511.02192      48257.621      1466.0157    
    145000   4144.798      -565.99135      0             -515.09441      14118.608      1495.4809    
    146000   4056.5459     -568.43286      0             -518.61964      13242.598      1517.7995    
    147000   3806.784      -570.5202       0             -523.77398     -8185.9748      1474.0223    
    148000   4577.3165     -562.69725      0             -506.48912     -49676.474      1605.6287    
    149000   4432.5593     -574.14438      0             -519.71382      73292.196      1410.2043    
    150000   4710.2478     -573.54709      0             -515.7066       15597.893      1388.7383    
    151000   4179.1365     -573.66902      0             -522.35042      55848.885      1358.8129    
    152000   4155.9009     -568.2116       0             -517.17833      3886.2737      1381.8318    
    153000   3234.7992     -567.34236      0             -527.61996      5739.8772      1452.8294    
    154000   4041.5054     -565.2871       0             -515.65857     -58073.815      1457.2168    
    155000   4788.1648     -576.28882      0             -517.49152      32513.602      1492.0334    
    156000   3843.1073     -571.85277      0             -524.66051     -7512.2574      1483.0753    
    157000   4359.4551     -572.74042      0             -519.20756      44867.294      1402.9824    
    158000   3871.9825     -572.58818      0             -525.04135      16867.77       1354.1682    
    159000   3855.4593     -572.30556      0             -524.96163      7432.9649      1390.3517    
    160000   3890.3112     -560.94282      0             -513.17092      2079.5361      1413.6424    
Loop time of 6.94657 on 1 procs for 80000 steps with 96 atoms

Performance: 995.023 ns/day, 0.024 hours/ns, 11516.472 timesteps/s, 1.106 Matom-step/s
99.2% CPU use with 1 MPI tasks x no OpenMP threads

MPI task timing breakdown:
Section |  min time  |  avg time  |  max time  |%varavg| %total
---------------------------------------------------------------
Pair    | 5.8345     | 5.8345     | 5.8345     |   0.0 | 83.99
Bond    | 0.0025048  | 0.0025048  | 0.0025048  |   0.0 |  0.04
Neigh   | 0.41592    | 0.41592    | 0.41592    |   0.0 |  5.99
Comm    | 0.20745    | 0.20745    | 0.20745    |   0.0 |  2.99
Output  | 0.011986   | 0.011986   | 0.011986   |   0.0 |  0.17
Modify  | 0.43763    | 0.43763    | 0.43763    |   0.0 |  6.30
Other   |            | 0.03661    |            |       |  0.53

Nlocal:             96 ave          96 max          96 min
Histogram: 1 0 0 0 0 0 0 0 0 0
Nghost:            514 ave         514 max         514 min
Histogram: 1 0 0 0 0 0 0 0 0 0
Neighs:              0 ave           0 max           0 min
Histogram: 1 0 0 0 0 0 0 0 0 0
FullNghs:         2992 ave        2992 max        2992 min
Histogram: 1 0 0 0 0 0 0 0 0 0

Total # of neighbors = 2992
Ave neighs/atom = 31.166667
Ave special neighs/atom = 0
Neighbor list builds = 3279
Dangerous builds = 0

fix npt1 all npt temp 4000 4000 0.1 iso 0 0 1
run 80000
Per MPI rank memory allocation (min/avg/max) = 8.549 | 8.549 | 8.549 Mbytes
   Step          Temp          E_pair         E_mol          TotEng         Press          Volume    
    160000   3890.3112     -560.94282      0             -513.17092      2079.5361      1413.6424    
    161000   3644.2943     -574.06059      0             -529.3097       56884.467      1365.1095    
    162000   3517.3062     -573.66116      0             -530.46965      30468.524      1359.847     
    163000   3935.38       -566.69167      0             -518.36633     -32028.343      1405.8096    
    164000   3654.3551     -572.39122      0             -527.51679     -2892.3026      1478.4924    
    165000   3878.1963     -564.19312      0             -516.56998     -27653.034      1411.9487    
    166000   3807.0671     -573.52693      0             -526.77724     -20798.284      1524.136     
    167000   3400.2607     -574.89607      0             -533.14184     -36184.358      1449.4966    
    168000   4099.8008     -573.34326      0             -522.99888     -15468.132      1455.421     
    169000   3736.5848     -575.51917      0             -529.63497      37514.648      1481.1261    
    170000   4620.1067     -575.98016      0             -519.24658     -9978.3229      1552.0172    
    171000   4409.4312     -570.04557      0             -515.89902      4103.1503      1573.3744    
    172000   3938.8517     -577.79547      0             -529.4275       22109.321      1535.3414    
    173000   3846.9875     -568.08274      0             -520.84283     -22196.697      1568.3697    
    174000   3659.6003     -577.93776      0             -532.99892     -14538.075      1524.9563    
    175000   4181.9005     -570.42717      0             -519.07463     -2066.9565      1515.4888    
    176000   4039.4673     -579.98751      0             -530.38401     -16885.422      1504.1037    
    177000   4255.6161     -581.46702      0             -529.20928      45210.465      1451.7875    
    178000   4192.0659     -573.24835      0             -521.77098     -46304.752      1552.6489    
    179000   3392.7015     -572.1789       0             -530.5175      -3798.5026      1537.9024    
    180000   3709.7576     -568.50795      0             -522.95319     -39839.531      1580.7103    
    181000   4264.1718     -576.67767      0             -524.31486      24658.081      1660.6576    
    182000   4488.688      -576.69148      0             -521.57168     -5733.2455      1535.1173    
    183000   3370.5824     -566.92648      0             -525.53669      31596.844      1520.4903    
    184000   4243.1877     -580.57589      0             -528.47076      7949.9825      1507.8829    
    185000   3983.915      -575.43617      0             -526.51483      20395.591      1525.469     
    186000   3910.9564     -565.11612      0             -517.0907      -9683.5414      1597.2335    
    187000   4180.6364     -566.77613      0             -515.43912      7001.057       1594.0119    
    188000   3562.0715     -575.87852      0             -532.1373      -23380.359      1580.5912    
    189000   3413.8359     -580.99831      0             -539.07738      22779.241      1531.7146    
    190000   4014.6214     -574.06307      0             -524.76467      1933.8938      1489.8961    
    191000   4812.8491     -567.05824      0             -507.95783      47160.92       1531.3544    
    192000   3732.0353     -570.91442      0             -525.0861      -24518.236      1574.9811    
    193000   4010.7795     -560.3154       0             -511.06418      39301.541      1542.4934    
    194000   3880.0664     -570.57213      0             -522.92602     -36250.018      1577.0826    
    195000   3974.8442     -561.65377      0             -512.84382      27327.801      1464.367     
    196000   3824.0386     -574.98578      0             -528.02768      16816.643      1541.8392    
    197000   3625.3031     -577.63705      0             -533.11937      6032.1442      1492.9227    
    198000   4363.7212     -571.56403      0             -517.97878     -6586.9909      1519.0236    
    199000   4208.5681     -574.70889      0             -523.02888      41635.938      1570.1679    
    200000   3840.5671     -570.72289      0             -523.56182      12539.563      1530.6025    
    201000   4310.1563     -574.96029      0             -522.03281     -10089.692      1674.1879    
    202000   4619.9137     -579.01196      0             -522.28074     -3360.9267      1585.6202    
    203000   4393.7285     -576.55452      0             -522.60079      15726.657      1567.6692    
    204000   3484.3622     -571.40142      0             -528.61445     -14409.97       1476.0772    
    205000   3973.1861     -582.01616      0             -533.22657      43320.478      1487.5963    
    206000   4058.8278     -577.80569      0             -527.96444     -23583.571      1508.8079    
    207000   3831.5509     -580.98777      0             -533.93742      10133.792      1482.6141    
    208000   3912.7281     -576.66797      0             -528.62079      52817.874      1491.2578    
    209000   4500.943      -576.66953      0             -521.39924     -16913.454      1534.9484    
    210000   3818.0494     -575.8136       0             -528.92905      4254.7913      1561.7907    
    211000   4622.454      -572.54733      0             -515.78492      1518.8224      1545.9523    
    212000   3665.4986     -569.65137      0             -524.6401      -11560.159      1618.7266    
    213000   3875.7368     -581.1948       0             -533.60186     -9322.2157      1625.3784    
    214000   4091.064      -577.08215      0             -526.84505     -9865.4391      1608.907     
    215000   4206.9164     -568.57986      0             -516.92013      5195.8006      1573.4801    
    216000   3616.0054     -577.869        0             -533.46549      5258.8813      1593.0096    
    217000   3794.4448     -574.24083      0             -527.64614     -46204.307      1649.9199    
    218000   3539.6521     -576.49041      0             -533.02449     -22915.375      1682.4014    
    219000   4164.797      -576.6986       0             -525.55609      12698.626      1646.7621    
    220000   4303.2111     -573.61377      0             -520.77157      2184.1674      1666.2249    
    221000   3552.6316     -572.99014      0             -529.36484      2411.5386      1682.8047    
    222000   4952.9889     -576.14196      0             -515.32067     -11522.436      1581.6256    
    223000   3687.6091     -576.39114      0             -531.10836     -3646.0804      1614.0971    
    224000   3738.5601     -580.35846      0             -534.45001      26309.839      1615.2121    
    225000   4386.2694     -570.60739      0             -516.74526     -5746.704       1615.7571    
    226000   4071.1329     -578.16506      0             -528.17271      1829.6711      1643.3052    
    227000   4327.3283     -569.40215      0             -516.2638      -42388.746      1695.8825    
    228000   3983.1903     -572.73767      0             -523.82523     -14193.905      1585.9613    
    229000   3598.1222     -577.89735      0             -533.71344      15380.117      1557.5713    
    230000   3754.4239     -572.93811      0             -526.83486      16491.523      1595.4807    
    231000   4194.5768     -571.58226      0             -520.07406      13601.197      1583.7107    
    232000   4343.7281     -583.69669      0             -530.35695      27286.828      1530.6148    
    233000   3720.9828     -583.07451      0             -537.3819       6152.3505      1564.0471    
    234000   4442.428      -580.30568      0             -525.75394      16541.026      1500.7345    
    235000   4209.3645     -575.94548      0             -524.25569     -24672.943      1603.1638    
    236000   4567.0751     -573.7919       0             -517.70952      9770.7674      1461.5507    
    237000   3744.5909     -573.16588      0             -527.18338     -28001.384      1472.8157    
    238000   4186.7024     -572.9616       0             -521.5501      -2759.5926      1496.0961    
    239000   4134.284      -572.90257      0             -522.13475      29662.051      1447.7695    
    240000   4191.3386     -565.33404      0             -513.8656       21964.739      1498.8047    
Loop time of 6.44847 on 1 procs for 80000 steps with 96 atoms

Performance: 1071.883 ns/day, 0.022 hours/ns, 12406.048 timesteps/s, 1.191 Matom-step/s
99.1% CPU use with 1 MPI tasks x no OpenMP threads

MPI task timing breakdown:
Section |  min time  |  avg time  |  max time  |%varavg| %total
---------------------------------------------------------------
Pair    | 5.3945     | 5.3945     | 5.3945     |   0.0 | 83.66
Bond    | 0.0024612  | 0.0024612  | 0.0024612  |   0.0 |  0.04
Neigh   | 0.37736    | 0.37736    | 0.37736    |   0.0 |  5.85
Comm    | 0.19457    | 0.19457    | 0.19457    |   0.0 |  3.02
Output  | 0.01043    | 0.01043    | 0.01043    |   0.0 |  0.16
Modify  | 0.43418    | 0.43418    | 0.43418    |   0.0 |  6.73
Other   |            | 0.03498    |            |       |  0.54

Nlocal:             96 ave          96 max          96 min
Histogram: 1 0 0 0 0 0 0 0 0 0
Nghost:            460 ave         460 max         460 min
Histogram: 1 0 0 0 0 0 0 0 0 0
Neighs:              0 ave           0 max           0 min
Histogram: 1 0 0 0 0 0 0 0 0 0
FullNghs:         2788 ave        2788 max        2788 min
Histogram: 1 0 0 0 0 0 0 0 0 0

Total # of neighbors = 2788
Ave neighs/atom = 29.041667
Ave special neighs/atom = 0
Neighbor list builds = 3065
Dangerous builds = 0

fix npt1 all npt temp 4000 3000 0.1 iso 0 0  1
run 80000
Per MPI rank memory allocation (min/avg/max) = 8.549 | 8.549 | 8.549 Mbytes
   Step          Temp          E_pair         E_mol          TotEng         Press          Volume    
    240000   4191.3386     -565.33404      0             -513.8656       21964.739      1498.8047    
    241000   4170.5892     -577.63188      0             -526.41824     -22738.272      1502.3871    
    242000   3705.0462     -571.14925      0             -525.65234     -20433.185      1508.7484    
    243000   3979.092      -584.30542      0             -535.44331      27042.194      1460.5569    
    244000   3754.4942     -570.27434      0             -524.17023     -18360.936      1502.1599    
    245000   3627.4225     -576.19624      0             -531.65253     -2487.9753      1556.2725    
    246000   4005.4777     -570.34325      0             -521.15713      9729.9889      1464.0662    
    247000   3662.2208     -579.05493      0             -534.0839      -32234.023      1494.629     
    248000   3332.9024     -574.32817      0             -533.40108     -22162.32       1531.7096    
    249000   4045.976      -576.17551      0             -526.49208     -8828.7525      1514.2758    
    250000   4046.6989     -574.10837      0             -524.41607      28011.56       1527.5294    
    251000   3869.877      -573.2349       0             -525.71391     -54563.537      1548.552     
    252000   4095.3901     -575.71542      0             -525.4252      -27809.662      1539.4449    
    253000   3515.3042     -570.10898      0             -526.94205      13352.262      1506.2504    
    254000   5008.2802     -574.75639      0             -513.25614     -8292.0929      1560.5507    
    255000   3529.8629     -577.3829       0             -534.0372      -16880.792      1562.4662    
    256000   3736.0077     -568.76582      0             -522.88871     -25331.021      1471.1858    
    257000   3261.0701     -575.78277      0             -535.73776     -16352.371      1537.3065    
    258000   3501.354      -579.67178      0             -536.67615      598.57618      1489.8196    
    259000   3898.5771     -583.02496      0             -535.15155      14170.763      1403.7779    
    260000   4103.0712     -577.10388      0             -526.71934     -6414.6955      1489.2344    
    261000   3890.5486     -579.77999      0             -532.00516      23647.632      1473.7626    
    262000   4035.6375     -581.0901       0             -531.53362      10943.195      1455.7874    
    263000   3504.1384     -583.01896      0             -539.98914      20652.29       1524.1915    
    264000   4027.0747     -583.89223      0             -534.44091     -19646.524      1534.3763    
    265000   3400.9214     -578.18882      0             -536.42648     -36122.507      1494.934     
    266000   3534.0509     -568.07504      0             -524.67791     -24027.972      1585.2182    
    267000   4178.5511     -572.72363      0             -521.41222     -24340.825      1467.0673    
    268000   3625.3139     -582.26917      0             -537.75135     -19381.39       1456.8714    
    269000   3914.0602     -586.18441      0             -538.12087      12283.736      1405.1056    
    270000   3663.8926     -583.51852      0             -538.52697      23113.758      1408.7339    
    271000   4216.1153     -571.83578      0             -520.0631      -43135.649      1483.9455    
    272000   3802.9547     -588.72853      0             -542.02933     -28249.006      1533.0668    
    273000   4278.1333     -581.13578      0             -528.60152     -6669.1064      1474.301     
    274000   3798.6119     -586.0642       0             -539.41833     -49493.755      1479.0048    
    275000   3574.8738     -580.87372      0             -536.97529      3567.7096      1465.3954    
    276000   3201.9311     -588.16677      0             -548.84797      1916.7166      1423.4173    
    277000   3669.0498     -584.89983      0             -539.84494      54058.515      1411.4727    
    278000   3488.0892     -588.9836       0             -546.15087     -21366.192      1450.7231    
    279000   4171.0898     -588.49085      0             -537.27106      29127.343      1430.858     
    280000   3189.6551     -584.89127      0             -545.72322      35416.57       1428.3995    
    281000   3788.0388     -588.47161      0             -541.95557     -13839.195      1449.0706    
    282000   3888.7439     -588.81372      0             -541.06106     -14653.166      1461.7523    
    283000   3502.7125     -591.9192       0             -548.9069      -19887.797      1465.7471    
    284000   3934.442      -586.39285      0             -538.07903      5728.4961      1469.8555    
    285000   3674.5269     -588.76359      0             -543.64145     -37808.264      1466.2098    
    286000   3060.3941     -583.95235      0             -546.37159     -14377.135      1418.5288    
    287000   3882.2619     -584.1481       0             -536.47504     -32451.909      1450.7089    
    288000   3370.5478     -592.35911      0             -550.96975     -34554.889      1443.839     
    289000   3986.0584     -590.54376      0             -541.5961       27098.74       1398.2953    
    290000   3494.5521     -597.31183      0             -554.39973      31286.205      1393.8076    
    291000   3197.5849     -589.03262      0             -549.7672       6274.5373      1318.4567    
    292000   3494.5498     -589.69817      0             -546.7861       23156.287      1405.3875    
    293000   3189.0157     -592.44195      0             -553.28175      19565.801      1439.9608    
    294000   3596.0653     -593.2083       0             -549.04964     -13074.917      1443.8194    
    295000   2795.9195     -588.26298      0             -553.92988     -7698.3623      1448.5453    
    296000   3364.7871     -586.50273      0             -545.18411     -36746.539      1430.7158    
    297000   3186.0479     -590.32975      0             -551.206       -9716.3745      1432.5485    
    298000   3649.0594     -586.10593      0             -541.29652      8843.6985      1426.7956    
    299000   3486.5403     -590.58395      0             -547.77023     -21600.423      1445.1113    
    300000   3321.6456     -593.90838      0             -553.11953     -11979.139      1428.1331    
    301000   2978.0161     -588.24822      0             -551.67903     -12789.828      1419.2377    
    302000   3466.8136     -589.80024      0             -547.22876     -1886.4761      1419.7424    
    303000   3301.9276     -595.14553      0             -554.59881      32787.299      1379.9071    
    304000   3238.6962     -593.81995      0             -554.04969     -19241.279      1401.5146    
    305000   3333.4317     -596.96212      0             -556.02853      6421.5917      1410.8739    
    306000   3088.4191     -597.62684      0             -559.70194      11894.168      1398.4451    
    307000   3691.3882     -591.43181      0             -546.10262      59602.996      1390.0796    
    308000   2946.6127     -590.56608      0             -554.38252      34029.691      1378.4396    
    309000   3665.2798     -586.49921      0             -541.49062      37036.755      1339.8706    
    310000   3061.4224     -591.8357       0             -554.24231     -7470.5281      1374.7628    
    311000   2996.883      -597.17366      0             -560.3728       24978.486      1405.024     
    312000   3352.0667     -591.1741       0             -550.01168      27560.85       1391.0551    
    313000   3031.6228     -599.883        0             -562.65554      20266.797      1367.6312    
    314000   2828.5877     -594.43934      0             -559.70509      17235.651      1405.5822    
    315000   2962.0864     -588.07248      0             -551.6989      -1441.7464      1408.1252    
    316000   2572.3537     -597.62986      0             -566.04209      9945.7109      1407.2541    
    317000   3463.4121     -593.23913      0             -550.70943      11881.948      1416.9087    
    318000   2854.5123     -595.69603      0             -560.64343      4553.9714      1415.8828    
    319000   3294.4174     -597.87994      0             -557.42544      39287.959      1386.1641    
    320000   2982.6629     -592.90095      0             -556.27471     -4665.3923      1414.5756    
Loop time of 6.34975 on 1 procs for 80000 steps with 96 atoms

Performance: 1088.547 ns/day, 0.022 hours/ns, 12598.921 timesteps/s, 1.209 Matom-step/s
99.3% CPU use with 1 MPI tasks x no OpenMP threads

MPI task timing breakdown:
Section |  min time  |  avg time  |  max time  |%varavg| %total
---------------------------------------------------------------
Pair    | 5.3163     | 5.3163     | 5.3163     |   0.0 | 83.72
Bond    | 0.0025076  | 0.0025076  | 0.0025076  |   0.0 |  0.04
Neigh   | 0.35816    | 0.35816    | 0.35816    |   0.0 |  5.64
Comm    | 0.19562    | 0.19562    | 0.19562    |   0.0 |  3.08
Output  | 0.0090579  | 0.0090579  | 0.0090579  |   0.0 |  0.14
Modify  | 0.43304    | 0.43304    | 0.43304    |   0.0 |  6.82
Other   |            | 0.03504    |            |       |  0.55

Nlocal:             96 ave          96 max          96 min
Histogram: 1 0 0 0 0 0 0 0 0 0
Nghost:            480 ave         480 max         480 min
Histogram: 1 0 0 0 0 0 0 0 0 0
Neighs:              0 ave           0 max           0 min
Histogram: 1 0 0 0 0 0 0 0 0 0
FullNghs:         2970 ave        2970 max        2970 min
Histogram: 1 0 0 0 0 0 0 0 0 0

Total # of neighbors = 2970
Ave neighs/atom = 30.9375
Ave special neighs/atom = 0
Neighbor list builds = 2816
Dangerous builds = 0

fix npt1 all npt temp 3000 3000 0.1 iso 0 0 1
run 80000
Per MPI rank memory allocation (min/avg/max) = 8.549 | 8.549 | 8.549 Mbytes
   Step          Temp          E_pair         E_mol          TotEng         Press          Volume    
    320000   2982.6629     -592.90095      0             -556.27471     -4665.3923      1414.5756    
    321000   2853.859      -591.93774      0             -556.89317     -2394.5323      1494.3721    
    322000   2760.5668     -591.12797      0             -557.229       -28452.841      1479.1592    
    323000   2972.7896     -598.74434      0             -562.23934      15167.64       1409.1523    
    324000   2725.4427     -596.82781      0             -563.36016      47531.238      1400.1375    
    325000   3350.2581     -593.63906      0             -552.49885     -10807.609      1431.4052    
    326000   3620.9881     -601.60657      0             -557.14188      9062.0576      1447.4172    
    327000   3420.551      -590.2509       0             -548.24751     -20930.933      1465.6564    
    328000   2938.7018     -595.02887      0             -558.94246     -16708.52       1487.8028    
    329000   2870.7672     -589.14958      0             -553.89738     -48206.264      1496.1525    
    330000   3352.4961     -591.13693      0             -549.96924      20064.616      1463.6039    
    331000   2759.4562     -594.53541      0             -560.65008     -15292.316      1417.8262    
    332000   3465.2132     -588.18104      0             -545.62922      19848.122      1385.1792    
    333000   2843.4543     -589.63594      0             -554.71914      11494.212      1469.3341    
    334000   2885.7991     -592.36669      0             -556.9299       3576.5028      1479.4418    
    335000   3167.7106     -594.48941      0             -555.59084      19644.782      1382.2533    
    336000   3141.421      -593.50381      0             -554.92806     -16313.715      1411.56      
    337000   3336.7251     -597.75691      0             -556.78288      11817.809      1421.3831    
    338000   2989.9633     -593.34212      0             -556.62622     -11714.805      1436.2313    
    339000   3066.2413     -593.32191      0             -555.66934      22100.839      1421.6233    
    340000   2989.2468     -597.92347      0             -561.21638      61754.129      1417.029     
    341000   3011.2729     -593.87442      0             -556.89686      23848.205      1492.4372    
    342000   3165.3483     -589.36059      0             -550.49101     -40548.392      1394.4547    
    343000   2914.5807     -594.32426      0             -558.53404     -22076.548      1436.6434    
    344000   3354.0482     -592.43865      0             -551.25189      14633.964      1435.8208    
    345000   3024.1928     -598.28885      0             -561.15263     -34474.947      1372.0886    
    346000   3054.8759     -598.75526      0             -561.24226      14994.565      1402.0167    
    347000   3016.8442     -593.60725      0             -556.56126     -9442.1521      1420.3632    
    348000   3058.8435     -592.97149      0             -555.40977      18647.839      1364.0871    
    349000   3040.2989     -601.76623      0             -564.43223      50479.062      1353.9068    
    350000   2912.5056     -593.63617      0             -557.87144      16172.274      1384.4302    
    351000   3127.061      -595.6486       0             -557.24918     -12472.989      1370.9349    
    352000   2914.1238     -593.01617      0             -557.23156     -16758.749      1416.3177    
    353000   2826.1342     -591.18927      0             -556.48516     -9715.8536      1433.8609    
    354000   2998.8793     -601.06744      0             -564.24206      28674.137      1379.4116    
    355000   3286.0887     -593.91384      0             -553.56161      12396.426      1352.449     
    356000   2803.3753     -593.2709       0             -558.84625     -22755.103      1411.5855    
    357000   2694.1875     -594.8145       0             -561.73065     -21542.089      1448.3497    
    358000   2342.3371     -590.85412      0             -562.09089     -22925.408      1415.8356    
    359000   2748.6092     -597.19945      0             -563.44731      41405.023      1382.8452    
    360000   3382.6763     -594.92578      0             -553.38748      2966.3218      1430.265     
    361000   2952.404      -597.78438      0             -561.5297       4183.4363      1436.2204    
    362000   3294.7208     -590.71202      0             -550.25379     -35657.18       1514.8133    
    363000   2903.3932     -600.08067      0             -564.42783      4280.6172      1446.08      
    364000   2804.0017     -594.01735      0             -559.58501      15351.841      1426.413     
    365000   3182.9634     -593.31233      0             -554.22645     -7594.8148      1393.3275    
    366000   2788.1651     -586.82099      0             -552.58312      32195.223      1386.2305    
    367000   2479.5015     -593.13551      0             -562.68794     -14560.4        1479.1182    
    368000   3134.4611     -592.04917      0             -553.55889     -22409.736      1476.2169    
    369000   2930.4793     -588.99007      0             -553.00462     -24308.022      1435.9096    
    370000   3254.2084     -596.84658      0             -556.88583      13492.744      1426.4369    
    371000   2380.6014     -593.31759      0             -564.08449     -1891.0411      1395.4087    
    372000   2877.2334     -592.77398      0             -557.44238      34.174243      1390.0868    
    373000   3401.3291     -594.10259      0             -552.33524      4182.0518      1397.8091    
    374000   2973.2583     -598.02251      0             -561.51175      7274.6643      1412.1867    
    375000   3031.1437     -593.71778      0             -556.4962      -7485.7306      1411.5896    
    376000   2908.3539     -588.03353      0             -552.31977      131.78048      1461.9882    
    377000   3116.461      -599.06233      0             -560.79308      12717.604      1435.0166    
    378000   2803.9157     -586.59015      0             -552.15887     -14639.116      1431.2581    
    379000   3048.2418     -595.17698      0             -557.74544      18737.226      1410.7505    
    380000   2633.8081     -594.73183      0             -562.38942      42655.517      1413.2186    
    381000   3103.0191     -594.35294      0             -556.24875     -19898.05       1462.6164    
    382000   2605.1302     -591.77371      0             -559.78346     -47366.74       1473.6901    
    383000   2734.6859     -585.67935      0             -552.09819     -29252.213      1471.0609    
    384000   3346.1439     -594.82448      0             -553.73479      55517.929      1379.6627    
    385000   3355.6556     -593.36426      0             -552.15777      80448.703      1387.9831    
    386000   3091.2996     -596.10956      0             -558.14929      4718.5002      1396.6911    
    387000   3527.31       -592.86227      0             -549.54791     -25359.488      1424.5293    
    388000   3005.0428     -597.07482      0             -560.17376     -22925.96       1464.09      
    389000   3043.1189     -588.35834      0             -550.98971     -2899.8605      1453.4653    
    390000   2990.3422     -592.37764      0             -555.65709     -14756.932      1477.4934    
    391000   2888.9732     -591.73523      0             -556.25947     -4649.9379      1460.1004    
    392000   2864.2668     -594.19111      0             -559.01874     -9364.9141      1450.1213    
    393000   2711.4217     -593.76012      0             -560.46464      7235.3478      1424.7522    
    394000   2952.2354     -581.86103      0             -545.60843      25878.847      1430.0364    
    395000   3242.4055     -595.39423      0             -555.57841     -3138.9359      1489.0469    
    396000   3019.0673     -597.44915      0             -560.37587     -29617.62       1496.9884    
    397000   3060.2561     -593.53747      0             -555.9584       4367.1625      1450.3058    
    398000   3791.4974     -590.9944       0             -544.4359      -18128.051      1464.2309    
    399000   3061.7231     -596.81088      0             -559.21379      12025.842      1432.9835    
    400000   3084.9787     -590.5886       0             -552.70594      42984.037      1424.5563    
Loop time of 6.06902 on 1 procs for 80000 steps with 96 atoms

Performance: 1138.899 ns/day, 0.021 hours/ns, 13181.705 timesteps/s, 1.265 Matom-step/s
99.4% CPU use with 1 MPI tasks x no OpenMP threads

MPI task timing breakdown:
Section |  min time  |  avg time  |  max time  |%varavg| %total
---------------------------------------------------------------
Pair    | 5.0811     | 5.0811     | 5.0811     |   0.0 | 83.72
Bond    | 0.002377   | 0.002377   | 0.002377   |   0.0 |  0.04
Neigh   | 0.3242     | 0.3242     | 0.3242     |   0.0 |  5.34
Comm    | 0.19187    | 0.19187    | 0.19187    |   0.0 |  3.16
Output  | 0.0099133  | 0.0099133  | 0.0099133  |   0.0 |  0.16
Modify  | 0.42685    | 0.42685    | 0.42685    |   0.0 |  7.03
Other   |            | 0.03269    |            |       |  0.54

Nlocal:             96 ave          96 max          96 min
Histogram: 1 0 0 0 0 0 0 0 0 0
Nghost:            487 ave         487 max         487 min
Histogram: 1 0 0 0 0 0 0 0 0 0
Neighs:              0 ave           0 max           0 min
Histogram: 1 0 0 0 0 0 0 0 0 0
FullNghs:         2904 ave        2904 max        2904 min
Histogram: 1 0 0 0 0 0 0 0 0 0

Total # of neighbors = 2904
Ave neighs/atom = 30.25
Ave special neighs/atom = 0
Neighbor list builds = 2563
Dangerous builds = 0

fix npt1 all npt temp 3000 2000 0.1 iso 0 0 1
run 80000
Per MPI rank memory allocation (min/avg/max) = 8.549 | 8.549 | 8.549 Mbytes
   Step          Temp          E_pair         E_mol          TotEng         Press          Volume    
    400000   3084.9787     -590.5886       0             -552.70594      42984.037      1424.5563    
    401000   3002.9316     -598.17998      0             -561.30484     -2799.6369      1441.4444    
    402000   3140.5526     -594.15324      0             -555.58815      17911.337      1415.3458    
    403000   2761.1816     -588.57026      0             -554.66374     -18602.599      1392.3777    
    404000   2700.9889     -596.54017      0             -563.3728       24612.262      1446.4799    
    405000   2793.2914     -594.52312      0             -560.2223      -19697.948      1481.8085    
    406000   2682.0633     -591.10728      0             -558.17231      21094.592      1428.2501    
    407000   2589.9017     -600.8868       0             -569.08355      935.31918      1429.3839    
    408000   2753.6026     -592.45016      0             -558.63671     -22230.553      1446.4409    
    409000   3212.7445     -594.75352      0             -555.30194      39027.385      1397.5274    
    410000   2843.3345     -598.96573      0             -564.0504       19639.336      1429.3243    
    411000   2883.8555     -600.6364       0             -565.22348     -35760.119      1437.1066    
    412000   2559.5621     -589.82884      0             -558.39815     -5901.8641      1463.5631    
    413000   2721.4935     -600.13378      0             -566.71462     -1952.4369      1452.3808    
    414000   2755.4055     -593.09261      0             -559.25702      818.45309      1426.4089    
    415000   2610.4746     -599.15647      0             -567.10059      12312.306      1368.4365    
    416000   2846.7439     -594.05563      0             -559.09843      10879.044      1409.0857    
    417000   2293.9218     -598.87651      0             -570.7078       2280.8904      1453.507     
    418000   3025.6001     -597.34053      0             -560.18702     -4780.7775      1455.4178    
    419000   2479.3341     -600.64098      0             -570.19547     -14308.513      1427.9365    
    420000   3086.6916     -596.85712      0             -558.95343      13466.618      1410.2855    
    421000   2401.7574     -597.30464      0             -567.81174      3272.3835      1441.8463    
    422000   3058.4249     -598.04336      0             -560.48678     -15955.968      1470.5987    
    423000   2644.2732     -597.6303       0             -565.15938      934.88519      1437.5579    
    424000   2521.9171     -597.67897      0             -566.71054      24564.781      1388.4496    
    425000   2626.8322     -600.86358      0             -568.60683      28783.562      1384.4427    
    426000   2969.1822     -596.9596       0             -560.4989       10181.225      1379.4367    
    427000   2499.2896     -601.34192      0             -570.65136      4018.6254      1422.5916    
    428000   2937.5661     -596.27841      0             -560.20593      12371.792      1430.1469    
    429000   2516.6715     -599.83619      0             -568.93218      11711.138      1447.6293    
    430000   2446.9775     -596.64601      0             -566.59782      591.89129      1411.8955    
    431000   2727.9088     -602.57124      0             -569.0733      -19112.441      1470.3306    
    432000   2401.8901     -597.83809      0             -568.34356     -9384.1144      1463.5992    
    433000   2846.328      -598.11934      0             -563.16725      22499.268      1463.658     
    434000   2435.0862     -596.51109      0             -566.60893     -25833.707      1480.9503    
    435000   2153.5696     -601.50997      0             -575.06475      9460.8216      1413.2197    
    436000   2780.3539     -604.62226      0             -570.48031      16307.475      1403.8433    
    437000   2166.0711     -600.3152       0             -573.71647     -1803.8778      1409.3071    
    438000   2654.1312     -599.59885      0             -567.00688     -10799.578      1482.6973    
    439000   2696.6021     -595.24487      0             -562.13137     -21526.492      1499.4362    
    440000   2432.4674     -601.99582      0             -572.12582      8340.3228      1427.7655    
    441000   2590.7456     -595.42828      0             -563.61467      21228.106      1381.5804    
    442000   2619.015      -601.13653      0             -568.97578      2661.038       1402.5037    
    443000   2375.9373     -604.95994      0             -575.78411     -20196.105      1487.0868    
    444000   2610.8452     -602.18771      0             -570.12728      11445.767      1430.7485    
    445000   2319.0944     -604.8684       0             -576.39058     -8660.5703      1430.269     
    446000   2118.7666     -601.00587      0             -574.98803     -8486.2234      1404.3716    
    447000   2646.6376     -597.20443      0             -564.70448      8252.463       1420.9945    
    448000   2365.4872     -603.41001      0             -574.36251      179.85127      1406.4259    
    449000   2485.9839     -602.28376      0             -571.75659      803.12869      1428.5133    
    450000   2203.8498     -602.02539      0             -574.96275     -6666.5095      1419.9528    
    451000   2777.2494     -604.35202      0             -570.24819      7882.7104      1413.169     
    452000   2446.392      -605.00539      0             -574.96439     -23790.458      1461.6465    
    453000   2297.8745     -604.3201       0             -576.10286     -15344.515      1436.9144    
    454000   2527.0051     -601.25417      0             -570.22327      10723.926      1384.6671    
    455000   1940.4308     -600.45198      0             -576.62405      1904.6157      1398.1397    
    456000   2511.0666     -602.46962      0             -571.63444     -19003.306      1489.9816    
    457000   2331.6509     -604.00884      0             -575.37683     -2472.633       1461.7156    
    458000   2376.1073     -604.49047      0             -575.31255     -20626.219      1439.6223    
    459000   1986.5406     -606.56977      0             -582.17562     -13449.572      1424.1068    
    460000   2427.3863     -605.14457      0             -575.33696      18540.764      1411.8966    
    461000   1950.1204     -604.25625      0             -580.30933     -13214.883      1460.9527    
    462000   2360.8519     -607.64193      0             -578.65135     -18853.416      1413.3393    
    463000   2316.1247     -605.26096      0             -576.81961      18367.915      1385.801     
    464000   2135.1012     -607.16243      0             -580.944        39017.885      1328.9809    
    465000   2182.0712     -608.51737      0             -581.72216     -7733.5511      1410.1461    
    466000   2395.4039     -602.27994      0             -572.86506      16066.072      1424.6736    
    467000   2119.1509     -606.34648      0             -580.32391     -5390.1074      1455.4347    
    468000   2205.0882     -604.36614      0             -577.28829     -33561.796      1433.4327    
    469000   2011.5664     -606.06818      0             -581.36672     -1541.3644      1382.2113    
    470000   1925.4824     -605.95444      0             -582.31007     -748.50206      1419.2822    
    471000   2147.7862     -602.82941      0             -576.45521     -16430.481      1419.048     
    472000   2269.2176     -607.42568      0             -579.56034      1510.4171      1417.1337    
    473000   2150.1461     -609.06794      0             -582.66476      8930.8833      1423.4706    
    474000   2276.32       -605.2121       0             -577.25954      13358.71       1413.6056    
    475000   2064.0866     -607.57446      0             -582.22806      5369.7062      1422.003     
    476000   2141.5151     -604.96754      0             -578.67034      3320.4985      1453.6626    
    477000   2059.1835     -607.69489      0             -582.40871     -3108.49        1427.5726    
    478000   1743.1267     -607.64201      0             -586.23691      21476.618      1365.7607    
    479000   1975.326      -607.59406      0             -583.33762     -12017.643      1397.1383    
    480000   2164.7287     -606.61422      0             -580.03197     -3683.585       1419.6122    
Loop time of 6.18481 on 1 procs for 80000 steps with 96 atoms

Performance: 1117.577 ns/day, 0.021 hours/ns, 12934.917 timesteps/s, 1.242 Matom-step/s
98.9% CPU use with 1 MPI tasks x no OpenMP threads

MPI task timing breakdown:
Section |  min time  |  avg time  |  max time  |%varavg| %total
---------------------------------------------------------------
Pair    | 5.2197     | 5.2197     | 5.2197     |   0.0 | 84.40
Bond    | 0.0025576  | 0.0025576  | 0.0025576  |   0.0 |  0.04
Neigh   | 0.28711    | 0.28711    | 0.28711    |   0.0 |  4.64
Comm    | 0.19114    | 0.19114    | 0.19114    |   0.0 |  3.09
Output  | 0.010635   | 0.010635   | 0.010635   |   0.0 |  0.17
Modify  | 0.43945    | 0.43945    | 0.43945    |   0.0 |  7.11
Other   |            | 0.03418    |            |       |  0.55

Nlocal:             96 ave          96 max          96 min
Histogram: 1 0 0 0 0 0 0 0 0 0
Nghost:            477 ave         477 max         477 min
Histogram: 1 0 0 0 0 0 0 0 0 0
Neighs:              0 ave           0 max           0 min
Histogram: 1 0 0 0 0 0 0 0 0 0
FullNghs:         2910 ave        2910 max        2910 min
Histogram: 1 0 0 0 0 0 0 0 0 0

Total # of neighbors = 2910
Ave neighs/atom = 30.3125
Ave special neighs/atom = 0
Neighbor list builds = 2245
Dangerous builds = 0

fix npt1 all npt temp 2000 2000 0.1 iso 0 0 1
run 80000
Per MPI rank memory allocation (min/avg/max) = 8.549 | 8.549 | 8.549 Mbytes
   Step          Temp          E_pair         E_mol          TotEng         Press          Volume    
    480000   2164.7287     -606.61422      0             -580.03197     -3683.585       1419.6122    
    481000   1921.3429     -607.4328       0             -583.83926     -11065.194      1443.3068    
    482000   2134.2335     -608.47849      0             -582.27071     -21358.897      1408.5873    
    483000   2216.8926     -608.89882      0             -581.67602     -6957.8346      1401.2375    
    484000   2241.7607     -610.10023      0             -582.57205      6491.2335      1394.4042    
    485000   2269.9536     -607.10249      0             -579.22811      8882.6288      1426.4592    
    486000   2103.8296     -609.96877      0             -584.13435      7457.2504      1439.4906    
    487000   2006.5447     -603.64099      0             -579.0012      -3761.5646      1438.5027    
    488000   2157.8545     -609.28335      0             -582.78551     -10539.477      1432.3269    
    489000   2002.3968     -604.19246      0             -579.6036      -14948.186      1428.065     
    490000   1784.5301     -607.28479      0             -585.37127      6353.0284      1424.8202    
    491000   1857.678      -606.67058      0             -583.85883     -8984.2961      1388.7414    
    492000   1809.6527     -608.2706       0             -586.04858     -6474.9361      1419.0691    
    493000   2484.8085     -606.90763      0             -576.39489     -27086.283      1470.3224    
    494000   2185.8906     -610.62305      0             -583.78094      28078.738      1347.7691    
    495000   2369.01       -606.01748      0             -576.92672     -7972.5686      1436.0365    
    496000   1995.2634     -607.82287      0             -583.32161      12802.144      1406.9136    
    497000   2033.9121     -608.93499      0             -583.95913      5728.6119      1405.4815    
    498000   1713.0508     -609.14837      0             -588.1126      -15508.271      1431.056     
    499000   1937.7655     -605.87144      0             -582.07624     -16211.153      1422.5574    
    500000   1989.3565     -610.39493      0             -585.9662       26862.917      1420.1322    
    501000   1864.5833     -604.44791      0             -581.55136      27989.589      1421.7539    
    502000   1924.335      -608.47363      0             -584.84335     -5411.2436      1428.4717    
    503000   2163.1829     -609.58944      0             -583.02618      11932.091      1425.5923    
    504000   2379.9549     -605.47395      0             -576.24878      23983.884      1422.0505    
    505000   1958.267      -607.90115      0             -583.85419      2753.1928      1433.5411    
    506000   2052.4194     -610.53287      0             -585.32974     -20276.309      1421.2896    
    507000   1924.1989     -605.38769      0             -581.75908      6172.9384      1416.426     
    508000   1915.4975     -607.55369      0             -584.03193      14846.281      1394.0008    
    509000   2149.8818     -606.64239      0             -580.24246      8656.0285      1427.4273    
    510000   1943.4679     -605.94297      0             -582.07774      11239.901      1401.7253    
    511000   1994.8865     -605.86074      0             -581.3641       16109.751      1404.9115    
    512000   1783.5906     -607.56855      0             -585.66656     -34638.497      1425.0188    
    513000   1991.3012     -605.88704      0             -581.43443      9059.3079      1422.7564    
    514000   2181.0623     -608.91399      0             -582.13117      2626.5208      1410.0259    
    515000   1785.0895     -610.89538      0             -588.975       -18926.949      1435.069     
    516000   1946.4593     -604.0848       0             -580.18283      28057.1        1374.5634    
    517000   1938.6112     -606.81229      0             -583.0067      -34460.624      1478.1918    
    518000   1904.3023     -607.16187      0             -583.77758     -2292.9803      1419.4554    
    519000   1945.4557     -608.12615      0             -584.23652     -174.53366      1419.2703    
    520000   2184.0591     -602.46925      0             -575.64963     -13851.824      1456.0738    
    521000   1903.8818     -611.49889      0             -588.11977      15691.077      1386.9893    
    522000   1721.8778     -606.39746      0             -585.25329     -7045.8855      1428.3063    
    523000   1876.7732     -608.30882      0             -585.26259      16398.785      1390.8128    
    524000   1945.9291     -605.94974      0             -582.05429     -32502.15       1442.3426    
    525000   1926.6153     -607.16214      0             -583.50386     -11025.196      1401.1325    
    526000   2072.7853     -608.28934      0             -582.83613     -1149.1171      1425.5765    
    527000   1833.2812     -607.88531      0             -585.37314     -530.83129      1396.423     
    528000   1909.7741     -605.20847      0             -581.75699      28616.423      1415.819     
    529000   2251.8425     -608.99533      0             -581.34335      9698.3902      1388.8276    
    530000   1891.9837     -612.21731      0             -588.98429     -2641.5027      1450.2119    
    531000   2235.7041     -608.4205       0             -580.96669      4665.8419      1419.9781    
    532000   2133.6701     -609.58552      0             -583.38466      17776.502      1372.7425    
    533000   2293.9361     -608.81554      0             -580.64666     -12636.318      1446.4235    
    534000   1858.4597     -603.54231      0             -580.72096     -14648.605      1436.3006    
    535000   1771.1665     -609.84245      0             -588.09304     -37584.274      1447.973     
    536000   1760.2307     -608.57693      0             -586.9618       9163.7657      1374.3957    
    537000   2007.2237     -605.28609      0             -580.63796      10372.457      1425.2309    
    538000   2043.1665     -608.94525      0             -583.85575      27547.874      1386.9673    
    539000   2221.3793     -609.86357      0             -582.58567      13710.764      1427.6842    
    540000   2062.467      -612.64145      0             -587.31494     -748.50158      1398.425     
    541000   1978.2774     -607.53174      0             -583.23906     -14934.091      1445.4085    
    542000   1680.8064     -608.70961      0             -588.06979      19955.104      1388.2       
    543000   1696.1398     -604.36928      0             -583.54117      22318.885      1390.2178    
    544000   1902.1371     -605.06369      0             -581.70599      12900.012      1433.8535    
    545000   1854.1259     -611.89041      0             -589.12228     -18897.871      1443.1994    
    546000   2114.0573     -607.91043      0             -581.95041      30849.69       1372.9807    
    547000   2204.3877     -610.56101      0             -583.49176     -22632.435      1444.0658    
    548000   1923.0279     -610.87242      0             -587.25819     -10286.99       1412.4947    
    549000   1895.2558     -610.0474       0             -586.7742       13622.935      1401.5646    
    550000   1936.1108     -604.32577      0             -580.55088     -34132.284      1458.5555    
    551000   2018.5009     -606.07196      0             -581.28535      14352.283      1409.8255    
    552000   2369.6692     -606.5939       0             -577.49504      17488.714      1415.4778    
    553000   1988.9371     -608.13456      0             -583.71099     -5368.2321      1435.1103    
    554000   2029.5359     -605.5649       0             -580.64278     -1465.169       1416.8609    
    555000   1849.2597     -606.31588      0             -583.6075       29486.015      1409.8842    
    556000   2696.3877     -606.03199      0             -572.92112     -2576.1104      1436.1399    
    557000   1824.7651     -607.62303      0             -585.21544      10775.922      1420.8425    
    558000   1932.8099     -607.16552      0             -583.43116      21606.983      1436.5732    
    559000   2376.9015     -606.05075      0             -576.86308      13343.402      1389.4806    
    560000   1870.6374     -608.51972      0             -585.54883     -9088.8353      1447.7086    
Loop time of 5.9749 on 1 procs for 80000 steps with 96 atoms

Performance: 1156.839 ns/day, 0.021 hours/ns, 13389.335 timesteps/s, 1.285 Matom-step/s
99.3% CPU use with 1 MPI tasks x no OpenMP threads

MPI task timing breakdown:
Section |  min time  |  avg time  |  max time  |%varavg| %total
---------------------------------------------------------------
Pair    | 5.0762     | 5.0762     | 5.0762     |   0.0 | 84.96
Bond    | 0.0024354  | 0.0024354  | 0.0024354  |   0.0 |  0.04
Neigh   | 0.24102    | 0.24102    | 0.24102    |   0.0 |  4.03
Comm    | 0.18554    | 0.18554    | 0.18554    |   0.0 |  3.11
Output  | 0.010278   | 0.010278   | 0.010278   |   0.0 |  0.17
Modify  | 0.42753    | 0.42753    | 0.42753    |   0.0 |  7.16
Other   |            | 0.03188    |            |       |  0.53

Nlocal:             96 ave          96 max          96 min
Histogram: 1 0 0 0 0 0 0 0 0 0
Nghost:            490 ave         490 max         490 min
Histogram: 1 0 0 0 0 0 0 0 0 0
Neighs:              0 ave           0 max           0 min
Histogram: 1 0 0 0 0 0 0 0 0 0
FullNghs:         2862 ave        2862 max        2862 min
Histogram: 1 0 0 0 0 0 0 0 0 0

Total # of neighbors = 2862
Ave neighs/atom = 29.8125
Ave special neighs/atom = 0
Neighbor list builds = 1888
Dangerous builds = 0

fix npt1 all npt temp 2000 1000 0.1 iso 0 0 1
run 80000
Per MPI rank memory allocation (min/avg/max) = 8.549 | 8.549 | 8.549 Mbytes
   Step          Temp          E_pair         E_mol          TotEng         Press          Volume    
    560000   1870.6374     -608.51972      0             -585.54883     -9088.8353      1447.7086    
    561000   1841.3431     -607.28569      0             -584.67452      6683.8948      1402.8309    
    562000   1731.6557     -608.20039      0             -586.93616     -21353.362      1435.8392    
    563000   2072.5338     -608.01573      0             -582.56561      4367.7227      1417.5893    
    564000   1706.8958     -605.92785      0             -584.96766     -20083.692      1413.8799    
    565000   2030.0039     -609.31538      0             -584.38751     -24452.413      1427.0472    
    566000   1646.6686     -610.1326       0             -589.91198      11687.013      1427.1296    
    567000   2076.0749     -607.34191      0             -581.84831     -11489.771      1426.2555    
    568000   2056.2737     -607.64142      0             -582.39097     -21771.752      1434.4389    
    569000   1819.1138     -611.09278      0             -588.75458      5069.4083      1440.615     
    570000   1939.3239     -605.08053      0             -581.26619     -27199.471      1437.7315    
    571000   1817.0507     -608.26264      0             -585.94978      10771.299      1399.6867    
    572000   1691.5104     -606.93685      0             -586.16559     -20165.347      1485.6177    
    573000   1717.1601     -611.57216      0             -590.48593      14771.19       1385.8472    
    574000   1767.3869     -611.80004      0             -590.09703     -187.98088      1426.4848    
    575000   1783.7379     -610.39418      0             -588.49039     -10049.5        1392.8887    
    576000   1785.8656     -609.60658      0             -587.67666      15930.985      1441.9875    
    577000   2168.6318     -610.15237      0             -583.5222       44055.228      1396.9475    
    578000   1673.0967     -612.23752      0             -591.69238      3743.036       1413.1904    
    579000   1900.7458     -609.92536      0             -586.58474      23423.708      1388.6988    
    580000   1843.2334     -613.41973      0             -590.78535     -23900.146      1433.0043    
    581000   2207.1061     -611.10803      0             -584.0054       26472.875      1418.6689    
    582000   1674.4618     -610.94488      0             -590.38297     -18396.571      1399.2841    
    583000   1681.681      -613.88707      0             -593.23651      283.23404      1436.7095    
    584000   1638.4379     -610.21836      0             -590.09881      7918.0602      1384.1343    
    585000   1536.8842     -612.76301      0             -593.89052     -15621.93       1437.7674    
    586000   1810.4886     -611.51322      0             -589.28094      37808.443      1368.2009    
    587000   1792.1851     -613.75948      0             -591.75196     -22505.371      1451.3465    
    588000   1633.4492     -613.43062      0             -593.37233     -420.53719      1405.0723    
    589000   1427.5032     -609.75337      0             -592.22404      8018.8357      1387.5352    
    590000   1750.3423     -612.91182      0             -591.41812     -12312.973      1437.2481    
    591000   1677.3515     -609.77795      0             -589.18055      15935.796      1402.9916    
    592000   1614.9562     -614.26759      0             -594.43639      1952.6762      1399.8847    
    593000   1856.3329     -610.54216      0             -587.74692      18857.688      1411.5852    
    594000   1585.5399     -613.97401      0             -594.50403      18048.902      1392.1758    
    595000   1610.4996     -613.5877       0             -593.81123      3968.8322      1371.8988    
    596000   1559.595      -616.07819      0             -596.92681      1287.1804      1405.0383    
    597000   1495.6034     -611.4976       0             -593.13202     -8306.9461      1414.3788    
    598000   1627.1587     -614.47089      0             -594.48985     -479.62386      1411.9353    
    599000   1657.426      -610.75338      0             -590.40066      40253.845      1353.0727    
    600000   1461.4696     -613.05301      0             -595.10658     -38974.779      1476.3597    
    601000   1415.0119     -614.34776      0             -596.97182      42115.969      1335.9419    
    602000   1446.2122     -611.30796      0             -593.54888     -9134.9707      1397.7341    
    603000   1418.7526     -615.54702      0             -598.12515     -26353.518      1435.762     
    604000   1434.7475     -615.7013       0             -598.08301      3412.5001      1410.5774    
    605000   1673.2621     -616.91145      0             -596.36427      24491.262      1384.442     
    606000   1396.8232     -611.77143      0             -594.61884     -22517.574      1415.0306    
    607000   1511.6166     -616.80845      0             -598.24623     -7017.1667      1397.141     
    608000   1173.7041     -614.97888      0             -600.56613     -8189.1565      1418.1567    
    609000   1530.5682     -616.01223      0             -597.21729      48165.89       1355.3778    
    610000   1426.3317     -617.73501      0             -600.22006     -8596.6396      1412.2076    
    611000   1270.2006     -617.65155      0             -602.05385     -3048.4665      1379.9374    
    612000   1522.4388     -616.70926      0             -598.01415     -17681.176      1406.2817    
    613000   1257.0497     -616.12277      0             -600.68656      8438.0451      1394.3579    
    614000   1258.9068     -618.02631      0             -602.56729     -1495.5146      1399.0141    
    615000   1434.8136     -615.72454      0             -598.10544     -11355.181      1430.6045    
    616000   1267.568      -616.37472      0             -600.80935      4379.9846      1375.9506    
    617000   1240.98       -617.04303      0             -601.80415     -7542.5943      1413.4817    
    618000   1250.4754     -615.76511      0             -600.40963     -9642.3041      1428.2427    
    619000   1302.4472     -617.92115      0             -601.92748      35743.457      1371.267     
    620000   1229.7679     -619.33216      0             -604.23096      23273.027      1375.2856    
    621000   1192.5586     -617.69693      0             -603.05265     -4569.5697      1407.2387    
    622000   1287.0944     -620.04843      0             -604.24328      6023.5849      1375.6416    
    623000   1172.7365     -616.24186      0             -601.84099     -11795.088      1424.4488    
    624000   1377.8345     -619.99558      0             -603.07617     -6437.7688      1394.3796    
    625000   1154.5788     -620.08608      0             -605.90818     -26869.947      1406.604     
    626000   1334.7131     -619.86395      0             -603.47405      17113.766      1407.0602    
    627000   1031.2369     -619.23657      0             -606.57327      4519.0295      1355.4308    
    628000   1141.506      -618.72172      0             -604.70435     -2788.285       1417.4852    
    629000   1227.3516     -619.02255      0             -603.95102     -248.0256       1409.2711    
    630000   1135.8458     -618.49441      0             -604.54655     -5928.8638      1386.1427    
    631000   987.30006     -620.87069      0             -608.74693     -3531.322       1408.3011    
[...]
Neighs:              0 ave           0 max           0 min
Histogram: 1 0 0 0 0 0 0 0 0 0
FullNghs:         3036 ave        3036 max        3036 min
Histogram: 1 0 0 0 0 0 0 0 0 0

Total # of neighbors = 3036
Ave neighs/atom = 31.625
Ave special neighs/atom = 0
Neighbor list builds = 152
Dangerous builds = 0


fix npt1 all npt temp 500 10 0.1 iso 0 0 1
run 80000
Per MPI rank memory allocation (min/avg/max) = 8.549 | 8.549 | 8.549 Mbytes
   Step          Temp          E_pair         E_mol          TotEng         Press          Volume    
    880000   495.34487     -627.38568      0             -621.30299      12075.306      1372.3099    
    881000   487.74136     -627.90721      0             -621.91788      3779.882       1364.2274    
    882000   517.73545     -629.03825      0             -622.68061     -3066.085       1400.4546    
    883000   525.1501      -627.75967      0             -621.31097      12459.286      1378.9897    
    884000   394.79582     -627.99654      0             -623.14856      19360.662      1359.3744    
    885000   528.47237     -629.26474      0             -622.77525     -5633.9019      1394.9846    
    886000   473.38666     -628.32683      0             -622.51378      9638.3681      1379.8627    
    887000   455.45117     -628.42271      0             -622.8299      -3500.7157      1383.4315    
    888000   386.71351     -628.46944      0             -623.72071     -121.35785      1366.0649    
    889000   448.08985     -628.77788      0             -623.27546      9196.2185      1362.2343    
    890000   433.43418     -629.11479      0             -623.79234     -7329.3715      1383.4842    
    891000   385.41724     -627.27696      0             -622.54415     -7410.6257      1380.6288    
    892000   407.82282     -629.01669      0             -624.00875      2975.5354      1361.9726    
    893000   427.93169     -629.18058      0             -623.9257       4652.6111      1391.8468    
    894000   401.96114     -629.60909      0             -624.67312      3241.169       1359.2063    
    895000   361.25975     -629.04315      0             -624.60698     -5275.9407      1400.2025    
    896000   381.76019     -629.35452      0             -624.66661     -3807.1637      1377.5562    
    897000   413.85035     -629.56146      0             -624.47949      1743.6091      1378.6618    
    898000   377.02521     -629.30346      0             -624.6737       5131.1958      1370.3753    
    899000   354.62926     -629.59625      0             -625.24151     -648.60947      1382.6451    
    900000   391.41932     -629.217        0             -624.41049     -150.91277      1377.544     
    901000   377.21447     -630.06956      0             -625.43747      3189.4636      1379.1162    
    902000   337.78689     -630.28355      0             -626.13562      7559.8708      1365.3784    
    903000   360.13479     -629.57896      0             -625.15661      4309.635       1379.6188    
    904000   354.02206     -629.01325      0             -624.66596     -1769.0612      1392.8545    
    905000   355.35925     -630.03841      0             -625.6747       18122.227      1354.1359    
    906000   303.32715     -630.80183      0             -627.07706     -2620.5239      1375.0031    
    907000   307.77393     -629.73926      0             -625.95988      5013.0403      1374.4689    
    908000   278.55501     -629.77016      0             -626.34959     -3558.7709      1378.2878    
    909000   323.28108     -629.9487       0             -625.9789       7731.3597      1374.7459    
    910000   311.09456     -629.91155      0             -626.0914       4071.8562      1371.8628    
    911000   300.99652     -630.888        0             -627.19185     -5046.2955      1386.5299    
    912000   308.64506     -630.48481      0             -626.69473     -3157.8267      1374.3895    
    913000   274.04861     -630.51151      0             -627.14627      5740.667       1372.931     
    914000   289.16912     -630.55948      0             -627.00857     -6098.5547      1393.136     
    915000   253.69352     -631.09352      0             -627.97824     -94.880952      1377.4109    
    916000   273.40511     -630.63336      0             -627.27602      14607.762      1360.5427    
    917000   313.07849     -631.3319       0             -627.48739     -2374.5857      1371.9802    
    918000   302.13137     -630.91303      0             -627.20294     -7517.8903      1382.5202    
    919000   253.15088     -631.17168      0             -628.06306     -1884.1968      1366.6158    
    920000   297.52463     -631.16765      0             -627.51413     -728.80064      1381.9323    
    921000   225.13645     -631.65443      0             -628.88982      7709.3117      1361.2098    
    922000   258.86862     -631.21442      0             -628.03558     -2027.9171      1381.5851    
    923000   256.42842     -631.08024      0             -627.93138     -5441.7982      1383.6574    
    924000   236.36817     -631.36805      0             -628.46552      14134.651      1353.7929    
    925000   227.12257     -631.25406      0             -628.46506     -4586.4381      1373.4271    
    926000   218.72494     -631.27953      0             -628.59366     -10057.745      1381.4155    
    927000   220.56776     -631.82356      0             -629.11505     -6314.8523      1376.778     
    928000   195.21507     -631.70445      0             -629.30727     -8078.6602      1380.4237    
    929000   212.67213     -631.97263      0             -629.36108      4475.2675      1365.2804    
    930000   193.33965     -631.81073      0             -629.43657     -2437.6895      1378.8296    
    931000   207.37888     -632.01707      0             -629.47052      1778.9629      1371.719     
    932000   201.15167     -632.15967      0             -629.68959      4945.8643      1370.0267    
    933000   194.87397     -632.25219      0             -629.8592       1435.681       1366.533     
    934000   182.04142     -631.99608      0             -629.76067      328.63088      1371.7038    
    935000   149.31947     -632.18584      0             -630.35224      6325.0233      1364.5088    
    936000   164.3607      -632.39702      0             -630.37872      824.59568      1372.9961    
    937000   145.86788     -632.59939      0             -630.80817     -882.83039      1375.5796    
    938000   145.30486     -632.41006      0             -630.62576     -3164.5629      1370.0133    
    939000   141.32972     -632.53991      0             -630.80442     -86.780688      1372.4104    
    940000   125.51582     -632.62059      0             -631.07929     -2263.3276      1372.4645    
    941000   134.29694     -632.25085      0             -630.60172     -1027.569       1371.1092    
    942000   117.13836     -632.84262      0             -631.40419     -937.64292      1372.7422    
    943000   129.69237     -632.74989      0             -631.15731     -1516.0541      1362.2618    
    944000   95.257338     -632.62944      0             -631.45971     -6398.2241      1383.309     
    945000   96.773721     -633.14159      0             -631.95324     -2523.2663      1370.9474    
    946000   106.33128     -633.09016      0             -631.78444     -623.85222      1362.6903    
    947000   79.308325     -633.24639      0             -632.2725      -603.47296      1365.8355    
    948000   90.253052     -633.25546      0             -632.14718     -597.55568      1377.5791    
    949000   78.789476     -633.3072       0             -632.33969     -3495.9268      1373.9957    
    950000   70.142687     -633.39465      0             -632.53332      2357.8332      1372.4613    
    951000   70.792897     -633.28011      0             -632.41079      5385.7471      1364.5268    
    952000   54.691651     -633.51764      0             -632.84605      3783.4383      1367.7352    
    953000   46.901586     -633.5928       0             -633.01686     -2034.1123      1370.4267    
    954000   45.245503     -633.68969      0             -633.13409     -876.07838      1368.5957    
    955000   45.825186     -633.67418      0             -633.11146      4756.0843      1361.7169    
    956000   36.778253     -633.8165       0             -633.36488     -4002.4196      1368.1576    
    957000   28.187684     -633.87307      0             -633.52693      2052.1629      1367.6779    
    958000   25.655581     -633.93756      0             -633.62251     -2930.8424      1374.9624    
    959000   16.438703     -634.08381      0             -633.88194      71.064811      1367.7572    
    960000   10.939055     -634.14178      0             -634.00745     -1271.8913      1368.8887    
Loop time of 5.51237 on 1 procs for 80000 steps with 96 atoms

Performance: 1253.907 ns/day, 0.019 hours/ns, 14512.808 timesteps/s, 1.393 Matom-step/s
98.6% CPU use with 1 MPI tasks x no OpenMP threads

MPI task timing breakdown:
Section |  min time  |  avg time  |  max time  |%varavg| %total
---------------------------------------------------------------
Pair    | 4.8488     | 4.8488     | 4.8488     |   0.0 | 87.96
Bond    | 0.0026564  | 0.0026564  | 0.0026564  |   0.0 |  0.05
Neigh   | 0.0040644  | 0.0040644  | 0.0040644  |   0.0 |  0.07
Comm    | 0.16987    | 0.16987    | 0.16987    |   0.0 |  3.08
Output  | 0.013357   | 0.013357   | 0.013357   |   0.0 |  0.24
Modify  | 0.44545    | 0.44545    | 0.44545    |   0.0 |  8.08
Other   |            | 0.0282     |            |       |  0.51

Nlocal:             96 ave          96 max          96 min
Histogram: 1 0 0 0 0 0 0 0 0 0
Nghost:            484 ave         484 max         484 min
Histogram: 1 0 0 0 0 0 0 0 0 0
Neighs:              0 ave           0 max           0 min
Histogram: 1 0 0 0 0 0 0 0 0 0
FullNghs:         2932 ave        2932 max        2932 min
Histogram: 1 0 0 0 0 0 0 0 0 0

Total # of neighbors = 2932
Ave neighs/atom = 30.541667
Ave special neighs/atom = 0
Neighbor list builds = 30
Dangerous builds = 0

fix npt1 all npt temp 10 10 0.1 iso 0 0 1
run 80000
Per MPI rank memory allocation (min/avg/max) = 8.549 | 8.549 | 8.549 Mbytes
   Step          Temp          E_pair         E_mol          TotEng         Press          Volume    
    960000   10.939055     -634.14178      0             -634.00745     -1271.8913      1368.8887    
    961000   9.9096716     -634.16329      0             -634.04161      707.71804      1365.7927    
    962000   10.56148      -634.14016      0             -634.01046      53.897473      1366.7039    
    963000   10.522803     -634.15535      0             -634.02613      650.6202       1364.9467    
    964000   10.977889     -634.15708      0             -634.02227      3108.4675      1363.7922    
    965000   12.801456     -634.14087      0             -633.98367      711.70918      1364.8393    
    966000   10.093423     -634.15558      0             -634.03164      303.21461      1366.1707    
    967000   10.157798     -634.1436       0             -634.01887      1693.4257      1368.829     
    968000   9.1601296     -634.15695      0             -634.04446      1508.4318      1365.5518    
    969000   10.224586     -634.14336      0             -634.0178       1698.7975      1366.3088    
    970000   10.579382     -634.15029      0             -634.02038      290.63005      1368.1072    
    971000   9.053431      -634.15448      0             -634.0433      -977.8857       1369.3519    
    972000   11.111279     -634.13792      0             -634.00148     -602.72218      1367.2518    
    973000   9.8511863     -634.13625      0             -634.01528      591.24052      1366.1873    
    974000   10.829621     -634.14366      0             -634.01068     -1178.2012      1368.9139    
    975000   11.37978      -634.13745      0             -633.99771     -1535.9312      1368.1547    
    976000   9.3383568     -634.1458       0             -634.03113     -466.61458      1369.6601    
    977000   11.286829     -634.13109      0             -633.99249     -120.77093      1367.9842    
    978000   10.043911     -634.15485      0             -634.03151     -498.12014      1367.6658    
    979000   9.8944811     -634.14647      0             -634.02497      213.84584      1366.7207    
    980000   9.9366246     -634.15315      0             -634.03113     -605.31907      1368.7518    
    981000   11.006484     -634.14626      0             -634.0111       422.51436      1367.0919    
    982000   10.447085     -634.15741      0             -634.02913      1698.6398      1367.4043    
    983000   10.974227     -634.1316       0             -633.99684      1297.0261      1366.7713    
    984000   8.7734061     -634.14499      0             -634.03725     -145.12502      1366.8199    
    985000   11.529823     -634.14163      0             -634.00005      39.400583      1368.7692    
    986000   9.5260468     -634.13863      0             -634.02165      394.22467      1366.5938    
    987000   9.2380169     -634.14742      0             -634.03398      190.65214      1367.6836    
    988000   9.5769327     -634.14089      0             -634.02329     -759.59061      1370.2401    
    989000   9.2201125     -634.14332      0             -634.0301      -2796.4787      1368.5304    
    990000   9.3895914     -634.13616      0             -634.02086     -1130.5436      1366.9373    
    991000   10.932724     -634.14159      0             -634.00734      69.675132      1367.2341    
    992000   10.445284     -634.15257      0             -634.02431     -1175.5877      1369.4228    
    993000   9.5867231     -634.16027      0             -634.04255      1003.9994      1367.4471    
    994000   8.6341197     -634.13544      0             -634.02942     -958.88503      1371.4914    
    995000   9.7406671     -634.14573      0             -634.02612      281.47214      1364.7265    
    996000   11.198203     -634.14299      0             -634.00548      1859.5904      1363.0629    
    997000   10.746694     -634.14809      0             -634.01613      2671.9121      1366.7691    
    998000   11.911547     -634.1507       0             -634.00443      1166.0789      1366.9084    
    999000   8.7082474     -634.1373       0             -634.03037      1072.0995      1367.612     
   1000000   9.5336072     -634.13127      0             -634.0142       2715.3321      1366.8383    
   1001000   9.7274944     -634.14692      0             -634.02747      1303.1476      1367.3509    
   1002000   10.928703     -634.13328      0             -633.99908      2785.9979      1364.6289    
   1003000   10.082535     -634.15384      0             -634.03003      9.3332122      1368.1292    
   1004000   8.2427065     -634.15541      0             -634.05419     -397.42856      1367.545     
   1005000   9.9155659     -634.14084      0             -634.01908      744.70192      1369.9572    
   1006000   8.3971716     -634.15024      0             -634.04712     -126.17747      1367.0122    
   1007000   9.8717564     -634.1259       0             -634.00468     -1507.6985      1369.4124    
   1008000   10.027519     -634.13247      0             -634.00934     -709.88774      1364.9588    
   1009000   9.923512      -634.12509      0             -634.00324     -1870.2578      1368.1412    
   1010000   9.90899       -634.15422      0             -634.03254      330.04817      1368.8073    
   1011000   10.244934     -634.14384      0             -634.01804     -1388.3228      1367.5693    
   1012000   9.5122202     -634.15646      0             -634.03965     -1120.3274      1371.2977    
   1013000   9.5401284     -634.13466      0             -634.01751     -2028.9054      1369.2545    
   1014000   8.6546403     -634.15773      0             -634.05145     -795.88152      1368.3685    
   1015000   10.465335     -634.13957      0             -634.01106      1019.0387      1366.5288    
   1016000   8.8008938     -634.14557      0             -634.0375       398.05958      1366.8658    
   1017000   11.001986     -634.13785      0             -634.00275      492.67413      1367.1728    
   1018000   9.7351795     -634.14906      0             -634.02952      1021.6906      1367.9577    
   1019000   11.220388     -634.13336      0             -633.99557      322.88819      1368.4607    
   1020000   10.334512     -634.16303      0             -634.03613      2002.7028      1365.6578    
   1021000   9.5341679     -634.14132      0             -634.02424      96.298659      1369.2344    
   1022000   10.913786     -634.15878      0             -634.02476      637.43398      1370.4129    
   1023000   8.7255058     -634.15524      0             -634.04809      379.11787      1368.7964    
   1024000   10.479847     -634.1476       0             -634.01891     -200.75174      1368.0435    
   1025000   8.9622526     -634.14579      0             -634.03573     -648.57778      1368.6138    
   1026000   9.9297985     -634.15784      0             -634.0359      -1006.8124      1367.0375    
   1027000   11.11429      -634.1393       0             -634.00282     -1681.0923      1370.0279    
   1028000   9.1568632     -634.14264      0             -634.0302      -1682.6018      1371.0828    
   1029000   10.066644     -634.14324      0             -634.01962     -2383.7949      1373.3123    
   1030000   10.771093     -634.13685      0             -634.00459     -279.02647      1368.1543    
   1031000   8.1904007     -634.15508      0             -634.0545      -543.14274      1368.7886    
   1032000   10.4228       -634.14591      0             -634.01792      258.47148      1365.6687    
   1033000   10.808788     -634.15337      0             -634.02064      1728.3632      1365.596     
   1034000   9.6210394     -634.12917      0             -634.01103      468.22962      1368.6524    
   1035000   10.251805     -634.12824      0             -634.00235      581.62327      1367.0512    
   1036000   9.8986822     -634.15436      0             -634.03281      107.42956      1369.4509    
   1037000   11.01189      -634.13895      0             -634.00373     -1080.8647      1366.6265    
   1038000   8.5737547     -634.1401       0             -634.03482     -916.12445      1368.7942    
   1039000   10.529521     -634.12539      0             -633.99609     -897.09232      1370.6056    
   1040000   10.222863     -634.15219      0             -634.02665     -1919.9166      1369.0223    
Loop time of 5.40571 on 1 procs for 80000 steps with 96 atoms

Performance: 1278.648 ns/day, 0.019 hours/ns, 14799.171 timesteps/s, 1.421 Matom-step/s
99.3% CPU use with 1 MPI tasks x no OpenMP threads

MPI task timing breakdown:
Section |  min time  |  avg time  |  max time  |%varavg| %total
---------------------------------------------------------------
Pair    | 4.7748     | 4.7748     | 4.7748     |   0.0 | 88.33
Bond    | 0.0024759  | 0.0024759  | 0.0024759  |   0.0 |  0.05
Neigh   | 0          | 0          | 0          |   0.0 |  0.00
Comm    | 0.16912    | 0.16912    | 0.16912    |   0.0 |  3.13
Output  | 0.0092657  | 0.0092657  | 0.0092657  |   0.0 |  0.17
Modify  | 0.42232    | 0.42232    | 0.42232    |   0.0 |  7.81
Other   |            | 0.02769    |            |       |  0.51

Nlocal:             96 ave          96 max          96 min
Histogram: 1 0 0 0 0 0 0 0 0 0
Nghost:            492 ave         492 max         492 min
Histogram: 1 0 0 0 0 0 0 0 0 0
Neighs:              0 ave           0 max           0 min
Histogram: 1 0 0 0 0 0 0 0 0 0
FullNghs:         2990 ave        2990 max        2990 min
Histogram: 1 0 0 0 0 0 0 0 0 0

Total # of neighbors = 2990
Ave neighs/atom = 31.145833
Ave special neighs/atom = 0
Neighbor list builds = 0
Dangerous builds = 0


write_data amorphousSiO.data
System init for write_data ...


Total wall time: 0:01:19
