96
 Atoms. Timestep: 0
2 0 7.95642 4.74695
2 4.63304 0 11.358
2 0 4.63304 4.74695
2 7.95642 0 11.358
2 0 4.63304 8.47514
2 7.95642 0 1.8641
2 0 7.95642 8.47514
2 4.63304 0 1.8641
2 10.7421 8.43088 6.61105
2 4.15858 10.7421 0
2 1.84736 4.15858 6.61105
2 8.43088 1.84736 0
2 1.84736 8.43088 6.61105
2 8.43088 10.7421 0
2 10.7421 4.15858 6.61105
2 4.15858 1.84736 0
2 10.5201 6.29473 5.04003
2 6.29473 10.5201 11.6511
2 2.06934 6.29473 5.04003
2 6.29473 2.06934 11.6511
2 2.06934 6.29473 8.18207
2 6.29473 2.06934 1.57102
2 10.5201 6.29473 8.18207
2 6.29473 10.5201 1.57102
2 10.1594 8.65935 9.20274
2 3.93011 10.1594 2.59169
2 2.43004 3.93011 9.20274
2 8.65935 2.43004 2.59169
2 2.43004 8.65935 9.20274
2 8.65935 10.1594 2.59169
2 10.1594 3.93011 9.20274
2 3.93011 2.43004 2.59169
2 2.43004 3.93011 4.01936
2 8.65935 2.43004 10.6304
2 10.1594 8.65935 4.01936
2 3.93011 10.1594 10.6304
2 10.1594 3.93011 4.01936
2 3.93011 2.43004 10.6304
2 2.43004 8.65935 4.01936
2 8.65935 10.1594 10.6304
2 0 10.703 0
2 1.88643 0 6.61105
2 0 1.88643 0
2 10.703 0 6.61105
2 0 0 1.872
2 0 0 8.48305
2 0 0 11.3501
2 0 0 4.73905
2 11.2706 2.31295 2.18973
2 10.2765 11.2706 8.80078
2 1.31887 10.2765 2.18973
2 2.31295 1.31887 8.80078
2 1.31887 2.31295 2.18973
2 2.31295 11.2706 8.80078
2 11.2706 10.2765 2.18973
2 10.2765 1.31887 8.80078
2 1.31887 10.2765 11.0324
2 2.31295 1.31887 4.42131
2 11.2706 2.31295 11.0324
2 10.2765 11.2706 4.42131
2 11.2706 10.2765 11.0324
2 10.2765 1.31887 4.42131
2 1.31887 2.31295 11.0324
2 2.31295 11.2706 4.42131
1 11.0086 7.83654 8.10972
1 4.75292 11.0086 1.49867
1 1.5809 4.75292 8.10972
1 7.83654 1.5809 1.49867
1 1.5809 7.83654 8.10972
1 7.83654 11.0086 1.49867
1 11.0086 4.75292 8.10972
1 4.75292 1.5809 1.49867
1 1.5809 4.75292 5.11238
1 7.83654 1.5809 11.7234
1 11.0086 7.83654 5.11238
1 4.75292 11.0086 11.7234
1 11.0086 4.75292 5.11238
1 4.75292 1.5809 11.7234
1 1.5809 7.83654 5.11238
1 7.83654 11.0086 11.7234
1 10.1088 10.1088 3.30552
1 2.48067 10.1088 9.91657
1 2.48067 2.48067 3.30552
1 10.1088 2.48067 9.91657
1 2.48067 10.1088 3.30552
1 10.1088 10.1088 9.91657
1 10.1088 2.48067 3.30552
1 2.48067 2.48067 9.91657
1 0 1.60471 1.57853
1 10.9848 0 8.18958
1 0 10.9848 1.57853
1 1.60471 0 8.18958
1 0 10.9848 11.6436
1 1.60471 0 5.03252
1 0 1.60471 11.6436
1 10.9848 0 5.03252
96
 Atoms. Timestep: 2000
2 0.14441 8.40994 4.13288
2 4.66419 12.8047 12.0342
2 11.8227 5.27984 3.52759
2 8.18771 -0.423667 12.1057
2 12.5641 3.42818 8.34424
2 7.92587 -0.168895 1.3926
2 0.160992 7.78007 8.67557
2 4.96349 12.7774 0.727603
2 12.0862 8.28656 6.20619
2 3.84992 10.8594 0.0833309
2 0.959676 4.02984 6.48363
2 8.37945 2.03228 13.4101
2 1.93906 7.55378 6.75767
2 7.96555 10.684 0.130456
2 10.5071 5.02093 6.3158
2 4.49939 2.29271 13.3403
2 10.7972 6.94407 4.53966
2 6.19926 11.3947 11.4735
2 1.651 5.92345 5.03012
2 6.33387 1.68884 11.2188
2 1.43951 5.57325 8.65047
2 6.7173 1.8393 1.11293
2 11.6475 6.2241 7.95962
2 6.01969 10.6816 1.24389
2 10.7157 8.56484 9.32362
2 3.6972 10.3215 2.54378
2 1.72995 2.89301 9.76741
2 9.39069 1.91325 2.39442
2 2.03981 8.52813 9.72789
2 8.6755 10.9291 2.81335
2 10.5196 2.92257 10.7178
2 3.90049 1.52289 2.30118
2 2.00985 3.84244 3.84488
2 8.21261 2.18727 10.0976
2 11.3842 10.0036 4.23565
2 3.32044 10.3731 10.9852
2 10.7961 3.53317 4.39532
2 3.71885 1.22146 10.3294
2 2.27701 8.46558 3.92261
2 8.91772 11.0525 10.5297
2 -0.152773 10.9146 0.0105662
2 1.27833 12.4176 6.77829
2 12.6314 1.30671 0.293764
2 11.4455 0.712369 6.25128
2 0.427035 -0.154327 2.07933
2 12.3167 12.2456 7.44836
2 12.1792 -0.200459 12.2741
2 0.1814 0.0283548 4.95655
2 11.8778 2.83685 1.83163
2 10.6013 11.2869 8.31979
2 0.82293 9.82349 2.40233
2 0.667963 0.818993 9.3033
2 1.81987 2.37683 2.05401
2 1.4065 11.4915 8.77609
2 11.3846 10.9702 2.24225
2 10.3727 0.892818 8.69034
2 0.262228 10.6165 10.9242
2 2.14249 1.02975 4.45914
2 11.754 2.71854 11.6983
2 10.4044 12.83 4.13349
2 10.8728 10.4027 11.068
2 13.1034 1.96675 3.79477
2 1.01338 1.3496 11.7785
2 2.00685 11.3576 4.34555
1 11.6783 7.91666 7.88295
1 4.52688 11.2748 1.44305
1 1.29663 3.95825 8.5427
1 8.25555 1.50647 1.20597
1 2.01502 7.08884 8.81263
1 7.29927 11.3523 1.59402
1 11.1855 4.43239 7.95187
1 4.96394 1.43521 1.0837
1 2.13078 4.35942 5.19228
1 7.79303 1.38271 11.7369
1 11.6426 8.31752 4.58676
1 4.17308 11.0294 12.1343
1 10.6593 5.17021 4.78014
1 4.72192 1.33701 11.8242
1 1.57833 7.87586 5.11884
1 7.82801 11.1183 12.2725
1 10.1403 11.0882 3.34614
1 1.81158 10.2773 10.1139
1 2.93055 2.23961 3.07259
1 9.87833 2.16141 9.44887
1 2.24657 9.90817 3.29232
1 10.238 10.2331 9.43031
1 10.3904 3.08691 2.85417
1 2.06966 1.29915 10.3716
1 0.238649 1.81852 2.0152
1 10.7542 12.6314 7.30204
1 -0.128578 11.3457 1.78968
1 0.58603 -0.428039 8.35144
1 12.2104 11.2572 11.8776
1 1.72875 -0.183342 5.38332
1 12.3814 1.39258 12.4329
1 11.8152 1.00321 4.67462
96
 Atoms. Timestep: 4000
2 0.0425164 6.63382 4.25241
2 3.95098 0.611058 12.0111
2 -0.344303 3.9766 5.11714
2 7.725 12.6372 10.7382
2 12.6728 5.82913 8.61629
2 6.91639 12.3831 2.05574
2 0.0246961 8.10241 0.682846
2 3.7433 0.216952 0.981726
2 11.6185 8.25992 5.8161
2 3.23541 12.2821 13.2129
2 1.12371 4.0613 7.09761
2 7.77759 -0.301382 -0.106178
2 1.79233 7.82405 6.17716
2 7.54325 11.0594 13.0006
2 10.5213 4.57909 7.62588
2 3.57873 2.23663 0.244087
2 11.2315 6.20435 5.68863
2 5.91091 11.4575 11.9726
2 1.76545 5.50204 5.22305
2 5.72499 1.36458 12.3688
2 1.73285 6.69616 8.12216
2 5.72243 1.86461 1.84251
2 12.8228 9.26552 7.47789
2 4.21888 11.5761 2.23281
2 10.2089 9.66136 8.41365
2 2.88295 10.1128 1.51884
2 2.34171 3.82304 8.98497
2 8.0754 1.62619 3.43961
2 1.67959 9.08455 9.67498
2 8.50617 10.4418 2.00126
2 11.8502 8.79768 1.23039
2 3.41486 0.641308 2.91035
2 1.63184 1.98434 5.37538
2 12.2778 3.86549 10.2737
2 10.9145 7.91606 2.74698
2 2.98195 11.3911 10.9069
2 10.5847 3.0138 5.39805
2 3.8929 3.29083 10.5673
2 1.6459 8.08995 3.70691
2 8.63159 10.9008 10.025
2 0.0173671 11.2226 13.2584
2 1.96582 9.725 6.8606
2 0.879558 1.60732 0.961606
2 11.1963 10.968 7.00404
2 -0.191907 12.451 1.96692
2 12.6795 0.361304 7.50623
2 -0.127146 0.271476 12.0407
2 0.363653 11.3046 5.69656
2 12.3442 1.72508 2.75258
2 10.4306 12.0143 8.91918
2 0.543385 10.0275 2.09313
2 2.34612 1.39644 7.82404
2 1.47035 1.23029 3.36132
2 1.64756 11.6435 8.42812
2 11.2704 10.7813 1.40869
2 10.6439 4.12881 12.83
2 0.2087 10.9109 11.1094
2 2.64564 12.8255 5.79228
2 0.200919 2.97305 12.6062
2 11.2342 10.227 3.81139
2 11.1165 11.5447 11.2994
2 9.37159 2.61368 3.11469
2 2.29313 1.87973 12.4605
2 2.43688 10.6599 4.51148
1 11.1101 9.51239 7.12425
1 3.16961 11.5007 0.968312
1 0.980222 5.24632 8.36444
1 7.01956 0.900153 2.48525
1 1.36851 8.27821 7.77404
1 7.67965 11.5191 0.918109
1 11.4066 4.82243 8.96689
1 4.25743 1.5667 1.49441
1 1.32639 3.84911 5.45749
1 7.44805 0.653745 12.1647
1 11.4887 7.46786 4.24933
1 4.35524 11.9788 11.9331
1 11.1905 4.27276 6.18297
1 4.02501 2.20823 12.3568
1 1.6727 7.01267 4.82616
1 7.28951 11.1839 11.2326
1 10.3897 9.79796 2.33116
1 1.51683 10.8073 10.4091
1 2.5707 0.536174 4.36141
1 11.9077 3.78697 12.0335
1 2.01695 9.72015 3.0644
1 10.2241 10.9862 9.98705
1 10.781 2.14752 3.8241
1 3.05569 2.4127 8.97471
1 0.456003 0.809811 2.17887
1 11.1335 12.4325 7.38107
1 -0.264194 11.0294 0.996599
1 1.12052 0.070442 7.59497
1 12.3906 11.8729 11.9056
1 2.05449 11.0791 6.01153
1 1.07599 1.18667 13.0995
1 12.4167 11.5175 4.24119
96
 Atoms. Timestep: 6000
2 -0.207889 6.70857 4.60058
2 4.78721 1.12484 11.3329
2 11.7078 3.90636 5.5883
2 8.86967 0.818266 11.7096
2 11.3024 5.93215 9.44573
2 6.92373 8.80057 0.849744
2 6.95345 6.18375 -0.143833
2 4.11478 11.8844 1.53527
2 10.2296 7.76758 4.68008
2 5.41818 10.9199 12.213
2 0.334401 5.53586 7.46365
2 7.86058 11.4002 0.953797
2 2.19374 8.4634 6.12474
2 8.47058 10.8071 11.8791
2 9.27522 4.89571 7.58225
2 4.53092 1.37436 1.04674
2 9.8215 5.46278 4.52435
2 6.99519 12.3674 10.4768
2 1.73026 5.89223 5.95537
2 6.35334 1.36785 0.234437
2 0.342804 8.57668 7.66707
2 6.11178 6.54813 1.91573
2 12.4256 10.4446 6.15191
2 4.6733 8.17647 1.53586
2 11.294 11.6073 8.63224
2 3.28471 9.92953 1.56567
2 5.72235 5.66163 11.2416
2 4.98916 8.65268 12.6096
2 2.73336 10.1262 8.17225
2 8.42896 9.50712 5.24239
2 9.4368 8.61811 0.897001
2 2.46938 1.0676 3.27138
2 1.15779 3.33608 4.85294
2 10.2777 3.02671 8.61847
2 10.6168 6.5269 2.39809
2 4.46512 11.0008 10.3058
2 9.33633 2.81616 5.47722
2 4.40779 3.72042 12.622
2 2.1314 7.62776 3.03934
2 10.3591 10.9159 10.425
2 2.56119 1.01141 0.121498
2 1.96653 11.3851 6.47375
2 11.4126 12.4149 0.410351
2 10.3254 10.0341 6.49021
2 0.0149914 11.0203 2.02991
2 1.50322 2.34549 9.84605
2 0.912387 2.52431 11.9846
2 2.16906 1.65246 7.55954
2 10.4921 0.634541 3.47289
2 12.1911 0.590051 10.0086
2 1.98738 9.81606 3.1172
2 2.83096 4.09433 10.4425
2 0.0957071 1.38912 2.35623
2 1.72642 3.8123 7.75213
2 11.7569 8.92482 2.06674
2 9.60592 0.447372 9.21548
2 2.47354 12.4623 9.57322
2 1.58676 0.767937 5.34395
2 11.4397 3.04535 10.4076
2 11.3051 10.5096 4.22668
2 -0.159111 11.598 11.8059
2 9.98625 -0.0779251 5.83128
2 3.54839 6.69307 11.7363
2 0.107175 12.343 7.21335
1 11.184 11.4876 6.82944
1 4.42215 10.4253 0.454381
1 0.472711 6.79173 8.40308
1 5.90782 7.42941 0.578799
1 1.55921 9.57794 6.87971
1 8.18793 9.84369 0.405779
1 10.0857 4.78249 9.04298
1 3.09527 0.716103 1.65731
1 0.884713 4.32884 6.30663
1 7.99109 0.718323 0.213191
1 10.8094 6.44806 4.06917
1 5.55669 12.1212 11.0882
1 9.62119 4.17165 5.88579
1 4.87011 2.24193 12.5926
1 1.43402 7.27614 4.98381
1 8.9345 11.8566 10.4789
1 10.9038 7.81511 1.23572
1 3.55611 11.2116 8.87377
1 0.917097 1.80435 4.01648
1 10.8325 1.56105 9.35641
1 3.25485 8.65297 2.64816
1 12.0503 11.2274 10.1977
1 9.62588 1.38483 4.76935
1 4.03472 5.00708 11.3609
1 11.5765 0.305984 1.94154
1 1.46105 0.827433 10.3068
1 -0.0820196 9.92066 3.12427
1 2.73432 3.10894 9.02606
1 0.966442 0.764677 12.5381
1 1.43059 0.391827 6.75459
1 0.453559 3.43526 10.7021
1 10.0107 9.2871 5.11567
96
 Atoms. Timestep: 8000
2 0.574116 6.77313 4.39218
2 6.03612 0.531384 12.759
2 0.311505 4.25868 5.80923
2 3.63719 4.81169 7.53052
2 12.1448 5.98262 9.22983
2 6.67903 9.52875 0.561418
2 5.44203 7.039 12.0008
2 3.15307 -0.0127791 1.98733
2 10.15 8.89009 4.681
2 4.85378 11.0753 13.1328
2 1.45774 6.52406 6.86554
2 9.23647 11.8494 0.724796
2 2.41581 8.40042 6.71612
2 8.86676 10.895 11.5999
2 10.9907 3.844 7.79025
2 3.86901 2.02339 0.951397
2 10.0312 6.12129 5.22767
2 6.88073 11.0793 10.4011
2 2.26186 5.67983 4.85465
2 6.17161 2.25898 1.97897
2 0.442939 8.7879 8.11042
2 7.42839 7.85151 1.51385
2 0.68602 10.7269 6.01254
2 4.56917 7.67315 1.44798
2 11.8522 12.1559 7.45463
2 3.63773 9.51517 1.94028
2 6.70237 2.98162 10.5208
2 5.31311 11.6613 3.27667
2 1.88099 9.95135 9.03431
2 9.12408 11.5005 3.24923
2 8.75376 9.57121 0.823908
2 1.13244 2.21131 1.48087
2 1.12589 4.58968 3.26979
2 9.88601 3.87709 10.2534
2 9.91603 7.20666 2.67421
2 4.34968 10.8722 10.9499
2 9.87799 3.56394 5.30369
2 4.89435 3.24174 12.2836
2 3.2103 8.01738 4.11009
2 10.3911 10.9289 9.72599
2 1.81936 0.0401222 12.129
2 3.0436 10.9891 6.98072
2 7.33486 12.0701 1.43487
2 11.1819 11.5465 5.23291
2 0.422936 10.5285 0.750514
2 2.24363 2.42946 8.45548
2 11.5442 0.271909 12.2382
2 3.44984 1.25721 7.25799
2 9.23752 1.29177 3.80125
2 0.339362 0.864444 9.65884
2 1.58456 8.18441 1.46267
2 4.89482 3.62556 8.88321
2 11.3181 2.43706 2.95584
2 2.74401 3.12816 5.88842
2 10.676 8.39072 1.19737
2 8.9601 1.11822 9.76767
2 2.50697 12.2003 10.069
2 5.01312 -0.0706389 5.87355
2 8.87327 1.7067 11.9452
2 11.4135 9.3823 3.08782
2 0.272553 10.7517 10.5208
2 11.6734 1.30959 4.9674
2 5.38068 5.45616 11.4941
2 2.0188 0.510739 5.53237
1 12.4496 12.4213 5.78461
1 4.3011 11.0997 2.15165
1 0.969501 7.26791 8.3914
1 5.91126 8.02452 0.56323
1 1.6189 9.89077 7.23855
1 7.7375 10.955 0.229271
1 11.3337 4.53898 9.26593
1 2.34247 1.06335 0.905796
1 1.57347 4.04939 5.05446
1 6.39987 11.5894 4.80439
1 11.0215 7.42562 3.89342
1 5.49545 11.9062 11.3085
1 10.8126 4.58734 6.05218
1 5.58808 2.11268 0.474479
1 2.12698 7.38633 5.32584
1 8.487 11.654 10.1117
1 9.04201 7.9471 1.543
1 2.98337 10.4556 10.365
1 0.357515 3.22782 2.26712
1 8.49032 2.56148 10.5874
1 3.22586 7.88214 2.26753
1 11.7518 11.7252 9.05477
1 10.4634 2.25006 4.32032
1 5.47768 3.89315 10.8236
1 8.195 0.65 2.97876
1 1.64003 1.62565 9.64862
1 12.2757 9.04658 1.57414
1 3.63042 3.09397 7.45279
1 0.677929 11.2833 12.0873
1 3.45048 12.2983 6.14479
1 9.97519 0.821302 12.6399
1 10.4272 10.5842 4.00594
96
 Atoms. Timestep: 10000
2 1.05207 6.12319 2.95319
2 5.18186 1.74956 11.5213
2 0.971131 4.40561 6.26158
2 3.64218 2.9254 11.185
2 11.6792 5.94806 7.83119
2 8.19645 10.6127 12.9729
2 6.40866 7.98065 12.6834
2 3.47253 12.1888 1.86223
2 10.7181 7.24932 3.514
2 4.5636 11.9752 0.202021
2 1.16225 6.85564 5.16782
2 9.25263 2.06166 0.532222
2 4.1336 7.13823 10.2878
2 7.36701 1.27831 11.418
2 9.71059 4.25778 6.32325
2 3.88761 2.22366 1.10184
2 10.9216 4.81945 4.12504
2 6.11952 12.316 10.0565
2 2.75494 4.76953 5.05711
2 4.48698 4.19101 1.18063
2 4.81037 7.5555 8.45792
2 9.10989 7.69679 11.7923
2 11.9458 8.64794 6.80137
2 4.00557 5.82606 1.08651
2 9.66032 9.81179 8.22807
2 4.32645 9.06132 1.26835
2 6.49646 5.74211 9.77972
2 4.74349 10.9719 3.7318
2 2.37916 8.89448 9.86224
2 8.96244 10.5131 3.29752
2 9.5368 11.5948 11.1022
2 2.05774 1.69974 2.99467
2 2.05042 2.06331 5.51422
2 8.84151 5.51094 9.11896
2 10.8885 5.48759 1.28157
2 3.53788 10.9844 10.7161
2 10.8256 2.47529 6.27516
2 5.07162 4.63142 11.625
2 3.11935 6.92841 3.07383
2 8.6503 0.590642 9.05375
2 0.92744 1.30303 12.9562
2 4.67324 10.2682 8.56474
2 7.84731 0.512769 1.66645
2 10.0813 9.37884 5.33146
2 1.32889 10.0156 12.2594
2 2.60645 1.62685 9.1384
2 10.7504 3.25582 12.1139
2 4.79199 1.71312 8.44538
2 8.89583 0.860518 4.54102
2 0.0920492 1.80307 7.33211
2 1.65811 8.1065 1.53983
2 3.7415 4.58114 10.0397
2 12.257 12.3355 5.08706
2 3.71111 3.6731 7.53682
2 11.4891 7.935 12.3446
2 7.1415 3.12329 9.6185
2 1.43907 11.0451 9.60927
2 5.04942 11.8598 6.27711
2 8.08714 4.64326 11.4681
2 10.9995 9.54863 1.94672
2 12.1215 1.50665 10.0604
2 10.1365 11.2082 6.78836
2 5.8822 6.76681 11.7981
2 2.58816 11.9263 7.73843
1 10.6212 9.83899 6.74774
1 4.66251 10.9195 2.00162
1 0.550561 6.9373 6.63207
1 8.01714 8.87463 12.3867
1 3.89924 8.58502 9.15171
1 8.59416 0.731958 12.4399
1 10.2405 5.99351 8.73124
1 2.27725 1.3309 1.45862
1 2.51152 3.49685 6.17774
1 5.73908 11.0296 4.74425
1 11.4054 5.89931 2.81293
1 4.86488 11.8703 10.9561
1 11.2093 4.04596 5.73115
1 4.767 3.10861 12.3175
1 2.19783 6.00063 4.2276
1 7.39706 1.61386 9.72397
1 10.3836 6.45233 12.3947
1 2.06043 10.3154 10.9101
1 1.76367 1.00199 4.53867
1 7.68503 4.62975 9.80479
1 3.33452 7.66386 1.69669
1 9.42145 11.2015 9.4945
1 10.4673 0.499104 5.6984
1 4.9175 5.71144 10.4758
1 8.40558 11.9719 3.23317
1 1.33801 0.69121 8.67683
1 12.4472 9.16833 1.12821
1 3.84776 2.66177 9.40394
1 12.1589 2.15565 11.5084
1 4.65981 11.8422 7.91352
1 8.92167 3.68297 12.6832
1 10.2393 9.2882 3.41912
96
 Atoms. Timestep: 12000
2 3.16516 5.10174 2.88877
2 3.84024 3.22668 12.8351
2 11.715 3.87384 5.94814
2 2.21587 4.49576 11.6984
2 9.60284 6.18103 7.73628
2 9.80391 7.73145 0.417736
2 9.36077 6.30506 10.4375
2 2.1198 12.322 2.59457
2 11.5386 6.20247 2.276
2 4.26244 1.13576 1.63734
2 12.0974 6.27427 7.09114
2 9.91701 12.1731 11.9339
2 5.4323 8.05166 10.3743
2 7.71768 0.275 12.8592
2 10.4343 5.69871 5.09542
2 12.1637 2.74762 1.79984
2 10.5423 4.23508 2.97361
2 5.12471 1.11446 11.7419
2 2.17572 5.62878 5.56783
2 3.3936 5.36814 1.27729
2 5.80685 11.1066 11.2429
2 1.31139 5.10606 9.83768
2 10.0056 8.27957 7.1739
2 4.73426 8.61933 3.96879
2 8.74121 10.0751 8.22656
2 4.00747 10.2602 2.90146
2 6.22903 4.71792 10.0247
2 4.11592 1.52222 3.6283
2 4.12454 10.647 9.9791
2 10.7112 8.91571 2.6987
2 9.31237 10.2798 11.5576
2 2.59786 0.92457 5.50918
2 1.25353 2.72784 6.23038
2 7.93934 4.60088 8.70168
2 11.5304 5.15711 12.7346
2 3.06325 0.838433 11.2576
2 10.2179 2.35134 5.30257
2 4.8494 5.86194 11.5038
2 2.99964 7.3109 3.71378
2 7.21918 11.9976 10.0533
2 0.593173 0.293385 12.8474
2 3.76724 1.12017 8.9295
2 8.76794 10.2515 1.61215
2 11.3747 10.9132 7.82671
2 3.4486 8.70551 11.5093
2 0.544915 12.3062 6.85921
2 11.5179 0.749824 10.3941
2 3.70683 3.53524 9.05862
2 9.28186 11.6864 3.72545
2 9.76784 11.5122 10.0669
2 2.44396 8.84473 1.77707
2 4.66855 6.31112 9.39235
2 11.5573 0.765485 4.87152
2 2.30859 5.58677 7.83001
2 1.58559 7.23561 11.8217
2 7.09185 2.07111 10.9116
2 1.77982 9.37189 7.41937
2 4.55808 2.22098 6.57923
2 8.64985 2.23485 9.57656
2 0.619982 8.31829 0.971348
2 0.891959 11.2412 9.62334
2 10.2137 11.203 5.57375
2 7.11558 6.6647 9.17718
2 6.24656 2.79863 8.67469
1 10.122 10.1002 6.99473
1 3.88625 0.13849 2.74976
1 10.5469 6.70426 6.63211
1 9.74205 7.78002 11.5805
1 4.79775 9.5125 10.9468
1 8.79744 11.0856 0.158785
1 8.63237 5.9677 9.00521
1 0.828286 1.08856 1.80704
1 1.14836 4.6371 6.72563
1 3.8783 2.03161 5.13105
1 11.754 4.25979 1.70913
1 3.75082 1.53177 12.684
1 10.4499 4.05709 4.65438
1 3.87213 5.05196 12.5162
1 2.62106 5.86942 4.2163
1 6.74916 0.578367 11.4922
1 0.86458 5.43516 11.5565
1 3.35721 11.8761 9.85993
1 1.04759 1.10649 5.67307
1 7.46218 3.3384 9.86569
1 3.68528 8.68921 2.76797
1 8.61002 10.7641 9.60011
1 9.73286 0.79448 5.00811
1 5.82045 6.55298 10.3381
1 9.42284 10.0645 3.37859
1 1.01388 10.9149 7.88268
1 1.96507 8.64126 12.6971
1 3.54437 5.11571 8.74052
1 0.24181 11.7049 11.2075
1 4.85392 2.42549 8.19088
1 9.93371 1.12823 10.3952
1 11.0138 7.76984 1.59576
96
 Atoms. Timestep: 14000
2 11.2579 8.2229 5.14492
2 5.13026 3.00038 12.3506
2 11.8527 3.23537 5.74474
2 3.09847 6.83191 9.50764
2 8.57607 5.77452 8.36774
2 10.3756 8.34986 12.4986
2 9.61426 6.8252 11.0596
2 1.81561 1.81882 1.87178
2 11.1041 6.28246 1.78746
2 4.17743 1.35502 1.62734
2 11.3088 5.03634 7.22502
2 8.56632 11.4322 11.5569
2 5.90916 6.78072 11.971
2 6.63588 10.5438 11.1791
2 10.1336 4.74141 4.98175
2 11.5118 4.01198 0.456969
2 10.5727 4.11149 3.04175
2 5.43733 0.41382 11.2788
2 0.638557 7.48382 2.61633
2 2.47374 3.99173 0.756488
2 6.48348 9.29369 0.423691
2 11.7648 7.79062 10.1468
2 9.82778 7.57006 6.796
2 4.74564 9.84193 3.3133
2 8.82709 9.68032 7.3469
2 2.739 11.4425 3.0185
2 7.10013 3.98494 11.3772
2 3.53658 1.99636 4.14222
2 5.05335 8.99746 10.1743
2 11.0997 9.41085 1.963
2 9.15507 8.94153 10.4551
2 2.16395 3.8083 5.98515
2 1.31162 2.28644 7.63131
2 8.73498 4.45082 10.1554
2 8.59584 4.96558 12.7275
2 2.55893 11.0111 11.3015
2 10.1455 2.15164 5.06409
2 5.68314 4.86876 12.6639
2 1.96962 9.43894 4.12673
2 7.3786 11.0432 8.45585
2 1.0131 1.46212 12.3169
2 5.15885 0.7355 8.86139
2 8.87252 10.2855 1.27222
2 0.447303 9.30293 7.58851
2 4.21807 8.09849 12.7405
2 10.7478 0.820648 8.87275
2 11.4192 12.0628 11.3448
2 4.25083 4.14852 8.1509
2 10.4627 11.948 3.32533
2 9.02327 11.5433 9.42148
2 2.82262 9.30262 1.54717
2 4.45881 4.75459 10.4816
2 11.9627 0.772268 5.89595
2 1.97789 3.90179 8.72758
2 2.52001 8.60506 10.8581
2 7.34323 1.51863 10.0699
2 2.73947 9.81408 8.61013
2 4.24798 2.32836 6.69358
2 9.35005 2.31615 10.5066
2 0.985448 7.90818 12.3241
2 0.753759 1.35015 9.5266
2 9.97867 10.4511 5.5978
2 7.17614 5.86685 10.3047
2 6.83236 3.02701 8.61967
1 10.6183 9.09727 6.46303
1 3.0429 1.18285 2.85252
1 9.89385 5.87969 6.72104
1 10.4832 8.1398 10.9428
1 5.68117 8.34239 11.7351
1 7.45767 10.6488 12.5727
1 8.61823 6.1666 10.003
1 1.09464 3.02381 0.734977
1 1.03911 3.93122 7.0733
1 3.62197 3.142 5.47932
1 10.4827 4.85734 1.19216
1 5.13885 1.50862 12.5218
1 11.0685 3.43966 4.40621
1 4.28419 4.20981 0.607546
1 0.762515 8.40071 4.1868
1 6.41826 11.8907 9.63568
1 1.5996 7.67211 9.8715
1 3.60603 9.83232 10.2049
1 0.493889 0.683741 7.80335
1 7.99865 3.09589 10.2564
1 3.02254 9.87418 3.00771
1 8.71317 10.0121 8.89599
1 10.3944 0.391116 5.02163
1 6.06477 5.28329 11.2013
1 10.2672 10.9249 1.99778
1 1.89084 10.3033 7.52161
1 2.63651 8.52487 12.5802
1 3.47959 5.26199 8.95368
1 1.24599 0.421672 11.1774
1 5.12171 2.57959 8.34269
1 10.0439 0.472867 10.6805
1 11.5286 7.82912 1.37139
96
 Atoms. Timestep: 16000
2 10.7136 8.67196 5.65696
2 5.01167 3.06389 0.564524
2 11.5938 3.93295 5.0095
2 3.08269 6.4753 9.27028
2 9.67113 5.71641 7.46388
2 10.92 7.82333 0.939158
2 9.75649 6.33448 10.3579
2 1.89131 1.48965 1.53519
2 11.9388 5.79242 1.79184
2 4.01434 11.9177 1.17544
2 11.5415 5.69234 6.79032
2 9.34285 11.6341 11.5021
2 6.78821 7.85942 10.7969
2 6.79285 1.10946 0.666859
2 10.0055 5.43179 4.55882
2 0.593701 4.21359 12.4712
2 10.1519 3.74611 2.50237
2 5.44623 0.675249 10.7775
2 11.7197 6.96375 3.81331
2 2.70137 4.55402 12.509
2 7.44223 9.66205 12.3615
2 0.855166 7.15401 10.3331
2 9.03221 7.55257 5.95946
2 3.47025 11.5163 5.12446
2 8.27582 8.62252 8.66077
2 2.73213 10.856 3.34107
2 7.20745 4.68526 10.3258
2 2.32433 1.25843 3.75195
2 4.53439 9.01165 10.4966
2 10.9176 8.84561 2.79102
2 9.17382 8.61431 10.8008
2 2.11148 2.75478 5.71384
2 0.62751 3.15365 7.50562
2 9.46392 4.52164 9.35374
2 9.62613 5.4144 12.3595
2 2.9653 11.0217 11.1928
2 9.24674 2.21029 4.56917
2 5.0199 5.5741 10.8621
2 2.19555 8.74054 5.50557
2 7.01272 10.7085 9.32186
2 2.12082 2.14152 11.3874
2 4.83494 1.72377 8.6819
2 9.07155 11.375 2.25818
2 0.838315 7.71937 7.07117
2 5.17223 8.49255 1.15928
2 10.4341 1.02952 8.53111
2 11.7738 0.613197 10.7071
2 4.18505 4.5104 8.33471
2 10.4992 11.2301 3.94909
2 9.87923 10.7641 9.83211
2 4.20524 9.35036 3.27011
2 5.33944 6.28429 8.53811
2 10.9289 1.30059 6.17853
2 2.89993 4.89443 6.64166
2 2.72615 9.41389 12.3635
2 7.35274 2.04793 9.50651
2 2.07252 9.44035 9.42135
2 1.10196 11.5075 5.62444
2 9.41555 2.23976 10.0392
2 1.95152 8.19555 2.23847
2 1.30707 11.9265 8.76881
2 9.29299 10.7525 6.50118
2 7.94058 6.55889 9.25755
2 3.44062 1.75931 6.80617
1 9.34989 9.00583 6.84245
1 2.37688 11.5801 2.15142
1 10.0386 6.27281 5.88003
1 10.7629 7.62171 11.2618
1 5.98727 8.90017 11.7217
1 8.04216 11.537 0.482084
1 9.35112 6.08523 8.99981
1 1.61879 2.87516 12.6119
1 1.33586 4.31903 6.46
1 2.45137 1.26948 5.27429
1 10.6787 4.63306 1.16965
1 4.99868 1.13237 12.4098
1 9.96914 3.90871 4.23557
1 4.61006 4.55705 12.0728
1 0.659077 7.77383 5.33328
1 6.15583 0.846755 9.23027
1 2.683 7.01659 10.6603
1 3.08238 9.49717 10.7837
1 11.5863 1.70345 7.78367
1 8.26426 3.57984 9.83245
1 3.34938 9.90883 4.76551
1 8.43452 9.73727 9.95141
1 9.83021 0.571525 5.29753
1 6.36653 6.08894 9.92561
1 10.3581 10.3146 2.70693
1 1.49611 8.32778 8.34137
1 3.57302 8.83658 1.73848
1 3.82373 5.89632 7.86175
1 1.99302 0.878028 10.4409
1 3.92218 2.84498 8.02524
1 10.1914 0.732993 10.3333
1 0.394148 7.45846 2.19349
96
 Atoms. Timestep: 18000
2 11.2296 9.46335 6.46322
2 5.20007 2.73241 12.6158
2 11.239 3.72876 5.40968
2 1.16841 5.55039 8.7909
2 8.96958 6.03306 7.69633
2 11.4547 7.88739 0.602226
2 8.86316 6.56129 10.867
2 2.01267 2.34485 3.38562
2 0.550462 6.20111 2.50638
2 4.93806 1.76756 2.80443
2 11.1158 6.23671 7.61316
2 10.0013 11.9145 11.5267
2 5.22156 8.07584 10.2469
2 7.31889 1.16936 1.18461
2 8.9855 4.74391 5.46483
2 12.0463 3.39447 1.6948
2 10.1706 4.50478 3.27751
2 5.1528 12.1111 11.826
2 12.0914 8.92248 3.83549
2 11.6327 0.798355 3.11477
2 7.09356 10.4735 11.9467
2 11.487 6.65507 10.4482
2 9.38186 7.69729 6.09833
2 5.85134 10.8995 4.64539
2 9.84866 8.8428 8.51957
2 5.1194 11.7859 1.56613
2 7.15798 3.17908 10.9867
2 4.26363 0.492349 4.77435
2 4.54326 10.17 10.3675
2 11.1001 9.48522 1.79587
2 10.1063 8.79482 11.1956
2 0.686534 4.48363 3.70511
2 1.19146 2.2487 5.69228
2 8.1852 3.93244 9.42727
2 10.7491 5.72792 0.913617
2 2.37036 11.8912 10.8977
2 9.44642 1.88912 4.40435
2 5.01639 5.00789 10.5554
2 11.2843 10.9338 4.53578
2 8.10965 10.1635 9.76476
2 1.9339 0.867086 1.09983
2 3.73287 1.10491 8.97203
2 9.07836 10.6194 0.882491
2 1.7778 9.03155 6.25147
2 4.5351 8.78384 12.3738
2 11.469 1.06853 8.16184
2 11.7624 1.16642 10.6698
2 3.55351 3.31503 7.66943
2 9.50323 11.136 3.5137
2 10.5866 10.8574 9.73005
2 4.42244 9.6704 2.70776
2 3.90551 6.06407 8.4524
2 10.8626 0.666024 5.96121
2 1.76236 4.68948 6.58918
2 2.77934 10.2521 12.5512
2 6.21619 1.37309 9.52264
2 2.76745 9.80273 8.98179
2 3.42011 10.5447 6.27054
2 8.91768 1.5454 10.034
2 2.01008 8.26029 1.22558
2 2.50112 1.15705 7.00093
2 9.3924 10.7436 6.2775
2 6.28129 6.28827 9.06489
2 5.01942 12.1096 7.22508
1 9.66031 9.22868 6.89621
1 3.78348 2.18565 4.15196
1 9.78221 6.02981 6.37156
1 10.4257 7.12187 11.679
1 5.66048 9.48736 11.4605
1 8.2644 11.5802 12.1336
1 8.0212 5.78163 9.5041
1 1.02872 1.74641 2.3207
1 1.13306 3.98423 5.34629
1 5.00584 11.2345 5.94593
1 11.525 4.87127 2.30242
1 5.64514 1.34464 0.937692
1 9.8105 3.63563 4.46615
1 5.93067 4.04954 11.7381
1 0.448741 9.42183 5.3272
1 4.91277 0.867511 10.0687
1 11.2175 5.57898 9.16162
1 2.82139 10.2703 10.5814
1 0.74591 1.30759 6.98334
1 7.61546 2.47215 9.58727
1 5.52419 10.8813 2.84112
1 9.53551 9.63681 9.87932
1 9.85612 11.8331 4.90118
1 4.716 6.45232 9.60566
1 10.1357 10.6874 2.14876
1 2.39366 9.79948 7.46444
1 3.54369 9.13401 1.44338
1 2.59167 4.77986 8.0475
1 1.4965 1.28159 11.6552
1 4.09664 1.77836 7.47397
1 10.6407 0.743248 9.81028
1 11.9653 8.15133 2.17389
96
 Atoms. Timestep: 20000
2 10.9869 9.01226 5.57752
2 6.55716 3.41401 0.943251
2 11.7202 4.91544 5.10098
2 1.19196 5.38146 9.33779
2 8.10107 5.76992 7.86371
2 10.1482 8.13354 12.4274
2 7.72015 4.82144 10.9042
2 2.47633 2.33946 2.02058
2 11.9467 6.42463 1.87866
2 4.99012 2.6899 2.54551
2 10.5238 6.05892 8.1749
2 9.09871 11.0113 11.7567
2 5.6698 6.80857 11.2776
2 8.07624 1.27284 1.60898
2 9.4126 5.06466 6.08235
2 11.8346 3.38365 1.2336
2 9.67659 4.68201 3.13425
2 5.42211 1.39723 11.7782
2 11.9979 7.9522 3.31643
2 0.820334 0.605778 1.81659
2 8.2387 7.67082 11.643
2 10.8547 5.69656 10.7931
2 8.78421 7.97086 6.4291
2 3.62894 12.0827 4.09957
2 8.08843 9.89436 7.22716
2 5.85224 11.9725 1.85898
2 8.04294 3.00952 11.6893
2 3.98251 2.35801 4.87829
2 4.78546 10.6087 10.0689
2 11.5824 9.3531 1.78548
2 6.3622 11.7738 9.11301
2 2.49708 4.11692 3.67188
2 0.978629 3.5039 6.13726
2 7.91683 2.7779 9.0297
2 10.1323 5.01985 12.8103
2 2.46673 11.1314 9.75165
2 10.0833 2.39122 5.44401
2 5.54497 4.41249 11.1473
2 1.00713 9.95573 3.61484
2 5.3401 8.92386 0.645287
2 1.14675 1.69851 11.6954
2 4.3034 1.52171 10.1121
2 9.9297 11.0018 2.24197
2 1.98615 9.44059 5.58537
2 6.36516 7.34665 1.73529
2 11.898 3.52006 9.05154
2 11.6379 11.4341 10.5238
2 2.93139 3.62073 8.23695
2 11.5455 0.429796 3.94334
2 9.133 10.6089 9.02597
2 3.26984 10.0119 1.86468
2 3.92403 5.56958 8.94128
2 11.4695 1.28143 6.48689
2 1.99502 5.31979 6.66942
2 2.85227 9.28296 11.3969
2 7.40901 0.923145 10.6618
2 3.39016 9.28082 8.3279
2 4.05658 10.9207 6.20858
2 9.78585 0.909684 10.3491
2 1.77563 8.51966 1.03147
2 1.17493 0.859137 8.67091
2 9.5419 11.2353 6.08751
2 6.24866 5.13458 9.31404
2 3.48698 1.12874 7.71225
1 9.36392 9.43491 6.00454
1 3.53938 2.88243 3.30682
1 9.50758 6.28795 7.22426
1 9.96116 6.73055 11.8116
1 6.67294 7.7896 12.5686
1 8.9041 11.6314 0.965294
1 7.62482 4.57763 9.12071
1 0.882568 2.09919 0.908896
1 1.6586 4.71113 5.06874
1 3.94421 0.752031 6.04561
1 10.9003 4.65334 1.94429
1 6.02829 1.66421 1.1162
1 10.0801 4.46034 4.77321
1 6.83746 4.23363 11.9715
1 0.642841 8.80249 4.87946
1 5.59578 12.0047 10.4951
1 11.3982 4.95733 9.34479
1 3.42858 9.74323 9.84449
1 12.2024 2.36133 7.65829
1 8.60712 1.94866 10.3405
1 4.26698 11.016 2.65042
1 7.53649 11.2806 7.98403
1 10.4941 0.734374 5.18337
1 5.21262 5.71362 10.2323
1 11.7306 11.1542 2.50178
1 3.33226 9.61009 6.70156
1 3.40983 8.9129 0.686192
1 2.31093 5.09077 8.17587
1 1.29016 0.698851 10.4972
1 3.77352 2.3076 8.77977
1 9.91522 11.0324 10.367
1 12.4321 7.94732 1.8014
96
 Atoms. Timestep: 22000
2 11.3186 8.15849 6.16891
2 6.00212 3.4256 1.05071
2 11.181 4.52503 5.02346
2 2.57641 6.32524 7.91739
2 9.18987 6.12788 7.89132
2 9.46237 8.75689 10.1489
2 8.06154 3.94382 10.3729
2 1.90172 2.55742 1.72848
2 11.3701 4.99581 2.36172
2 4.00422 2.30359 2.29103
2 11.306 7.31663 7.93322
2 9.02494 10.5171 11.7419
2 5.89618 7.39865 11.6578
2 7.06722 1.21501 1.2641
2 9.22594 6.58916 5.80217
2 10.111 2.94139 1.76692
2 9.24661 4.69756 3.25652
2 4.75382 1.2367 11.3506
2 11.53 6.60505 4.38225
2 11.1798 0.716662 2.87038
2 8.47846 7.51885 12.4664
2 11.5676 6.91578 10.4748
2 9.36678 10.066 8.26775
2 5.34644 11.082 3.64731
2 7.03295 9.13893 8.52724
2 5.20311 11.1359 1.25054
2 9.77711 1.38667 12.1066
2 2.99423 1.42584 4.20053
2 5.25964 8.49007 9.46883
2 11.1074 7.218 0.985475
2 6.22468 11.256 9.29355
2 2.33633 4.23394 4.22713
2 1.08463 4.23201 6.78875
2 10.0783 4.20128 9.07159
2 9.69917 5.871 0.572696
2 2.74323 10.6273 9.48513
2 9.83342 3.26205 5.84327
2 6.14059 5.40076 10.5935
2 10.6262 9.51119 4.11613
2 6.16059 8.79151 2.32316
2 11.843 1.01861 11.2645
2 5.38436 2.1931 8.51517
2 9.26404 10.5476 2.52597
2 2.4475 8.81852 4.86034
2 7.86201 4.6587 1.14679
2 0.917122 4.87756 8.77227
2 11.2417 10.8187 9.81458
2 4.63599 4.25394 6.83155
2 10.2448 0.975633 5.08121
2 6.7829 9.65776 11.6075
2 4.09271 8.91264 2.12642
2 4.76982 5.88474 9.0476
2 10.4115 2.35867 7.6346
2 2.09524 6.40626 5.53623
2 3.2292 8.08844 10.8812
2 7.14854 2.03405 10.5607
2 2.93139 9.05118 7.90067
2 4.5313 10.3744 5.66015
2 8.9305 0.805993 9.57362
2 2.21984 7.75456 2.08172
2 1.21034 1.98306 8.80378
2 9.13419 11.1289 6.62069
2 7.76104 6.52641 10.0226
2 4.93253 1.78922 5.65478
1 8.18971 9.54281 7.06982
1 2.7017 2.67564 3.25458
1 9.69583 7.54266 7.10794
1 10.0426 7.16817 11.3064
1 6.92427 8.247 12.72
1 8.46502 11.2526 1.21158
1 8.66617 5.22145 9.3867
1 11.4609 1.81691 1.50214
1 1.6195 5.01775 5.42766
1 4.21198 11.7658 4.86217
1 9.72471 4.66453 1.69132
1 5.48756 1.72706 1.02313
1 9.53209 4.79546 5.07463
1 6.79249 4.43224 11.5618
1 12.0063 8.29986 4.75489
1 5.86084 1.48687 9.97118
1 1.0395 6.57183 8.98581
1 3.65549 9.02921 9.41951
1 11.294 3.56764 8.30751
1 8.94681 2.12577 10.4813
1 5.07728 10.0297 2.33346
1 6.21344 9.80771 9.98285
1 9.8498 1.68389 6.42517
1 5.81657 6.95556 9.97387
1 10.161 11.0122 3.81737
1 3.34171 9.40894 6.18867
1 3.23814 8.33558 0.965938
1 4.12754 5.37234 7.83225
1 1.42667 11.7395 9.70191
1 5.14442 2.72992 6.92826
1 9.7106 10.4962 10.0019
1 0.959527 6.6508 2.21994
96
 Atoms. Timestep: 24000