96
 Atoms. Timestep: 0
2 0 7.95642 4.74695
2 4.63304 0 11.358
2 0 4.63304 4.74695
2 7.95642 0 11.358
2 0 4.63304 8.47514
2 7.95642 0 1.8641
2 0 7.95642 8.47514
2 4.63304 0 1.8641
2 10.7421 8.43088 6.61105
2 4.15858 10.7421 0
2 1.84736 4.15858 6.61105
2 8.43088 1.84736 0
2 1.84736 8.43088 6.61105
2 8.43088 10.7421 0
2 10.7421 4.15858 6.61105
2 4.15858 1.84736 0
2 10.5201 6.29473 5.04003
2 6.29473 10.5201 11.6511
2 2.06934 6.29473 5.04003
2 6.29473 2.06934 11.6511
2 2.06934 6.29473 8.18207
2 6.29473 2.06934 1.57102
2 10.5201 6.29473 8.18207
2 6.29473 10.5201 1.57102
2 10.1594 8.65935 9.20274
2 3.93011 10.1594 2.59169
2 2.43004 3.93011 9.20274
2 8.65935 2.43004 2.59169
2 2.43004 8.65935 9.20274
2 8.65935 10.1594 2.59169
2 10.1594 3.93011 9.20274
2 3.93011 2.43004 2.59169
2 2.43004 3.93011 4.01936
2 8.65935 2.43004 10.6304
2 10.1594 8.65935 4.01936
2 3.93011 10.1594 10.6304
2 10.1594 3.93011 4.01936
2 3.93011 2.43004 10.6304
2 2.43004 8.65935 4.01936
2 8.65935 10.1594 10.6304
2 0 10.703 0
2 1.88643 0 6.61105
2 0 1.88643 0
2 10.703 0 6.61105
2 0 0 1.872
2 0 0 8.48305
2 0 0 11.3501
2 0 0 4.73905
2 11.2706 2.31295 2.18973
2 10.2765 11.2706 8.80078
2 1.31887 10.2765 2.18973
2 2.31295 1.31887 8.80078
2 1.31887 2.31295 2.18973
2 2.31295 11.2706 8.80078
2 11.2706 10.2765 2.18973
2 10.2765 1.31887 8.80078
2 1.31887 10.2765 11.0324
2 2.31295 1.31887 4.42131
2 11.2706 2.31295 11.0324
2 10.2765 11.2706 4.42131
2 11.2706 10.2765 11.0324
2 10.2765 1.31887 4.42131
2 1.31887 2.31295 11.0324
2 2.31295 11.2706 4.42131
1 11.0086 7.83654 8.10972
1 4.75292 11.0086 1.49867
1 1.5809 4.75292 8.10972
1 7.83654 1.5809 1.49867
1 1.5809 7.83654 8.10972
1 7.83654 11.0086 1.49867
1 11.0086 4.75292 8.10972
1 4.75292 1.5809 1.49867
1 1.5809 4.75292 5.11238
1 7.83654 1.5809 11.7234
1 11.0086 7.83654 5.11238
1 4.75292 11.0086 11.7234
1 11.0086 4.75292 5.11238
1 4.75292 1.5809 11.7234
1 1.5809 7.83654 5.11238
1 7.83654 11.0086 11.7234
1 10.1088 10.1088 3.30552
1 2.48067 10.1088 9.91657
1 2.48067 2.48067 3.30552
1 10.1088 2.48067 9.91657
1 2.48067 10.1088 3.30552
1 10.1088 10.1088 9.91657
1 10.1088 2.48067 3.30552
1 2.48067 2.48067 9.91657
1 0 1.60471 1.57853
1 10.9848 0 8.18958
1 0 10.9848 1.57853
1 1.60471 0 8.18958
1 0 10.9848 11.6436
1 1.60471 0 5.03252
1 0 1.60471 11.6436
1 10.9848 0 5.03252
96
 Atoms. Timestep: 2000
2 0.263412 7.99468 3.50242
2 4.94593 -0.304289 11.6433
2 12.4555 4.4954 4.34718
2 8.58898 12.0539 11.2959
2 0.0669823 3.50091 7.07063
2 7.19938 0.0329942 1.03589
2 0.644102 7.67944 9.61839
2 4.763 0.598892 1.10172
2 12.3716 6.27851 11.8981
2 3.97416 11.1926 13.0377
2 0.918019 0.849673 5.73677
2 8.64518 0.919515 13.5187
2 0.847553 8.70013 6.33687
2 8.04738 10.7269 -0.0646765
2 11.5161 5.22484 6.52681
2 4.7499 2.61569 13.6208
2 10.6272 6.24201 4.17356
2 6.33064 10.3095 11.684
2 1.51394 6.82692 4.64721
2 4.47459 6.21838 11.7044
2 11.9392 8.89775 7.72151
2 6.27475 3.12826 1.26116
2 0.315843 5.50764 9.03599
2 5.47285 11.5673 1.78271
2 10.4991 9.17528 8.53888
2 3.08493 10.5849 2.05288
2 2.02779 4.82861 10.2886
2 8.54604 2.15045 2.64198
2 1.83597 9.38847 8.54013
2 8.10362 11.2834 2.25613
2 10.9645 2.98492 9.28053
2 3.05694 2.9912 1.85238
2 1.4358 4.16152 3.20475
2 9.9637 1.20222 10.4413
2 10.4701 8.58325 3.42801
2 3.87692 10.3304 10.4955
2 9.91513 3.54649 4.69027
2 3.67832 2.46749 11.3038
2 1.86977 9.39216 3.50545
2 8.75946 10.1951 10.3569
2 12.5211 10.9053 13.0863
2 3.26151 0.815772 7.67195
2 -0.318451 1.22259 0.0684167
2 10.5746 12.5479 6.5849
2 11.8506 12.3753 1.0235
2 0.733223 12.7183 7.94244
2 0.691446 12.7458 11.8268
2 12.0697 11.5586 5.18315
2 11.6828 1.53734 2.75384
2 10.8872 11.7372 8.82993
2 -0.0762531 10.0953 1.77637
2 2.02495 1.85753 9.43473
2 1.06925 1.55028 1.77011
2 2.43093 12.228 9.68399
2 10.3975 10.5442 1.78662
2 11.6913 1.06988 9.24028
2 2.21497 10.7902 11.5901
2 1.05119 1.27887 3.83639
2 12.3684 2.17818 11.607
2 9.39798 11.106 4.52855
2 2.44845 11.8894 0.584797
2 10.6999 0.424363 4.134
2 1.75485 2.17028 11.5739
2 1.27399 11.9276 3.41526
1 0.792463 6.05136 10.3813
1 4.01619 11.7516 1.29269
1 1.16733 1.98905 7.07578
1 7.54188 1.69255 1.33638
1 0.775485 8.23197 8.14909
1 6.9473 11.222 1.13832
1 11.8752 4.52407 8.16227
1 4.57896 2.54377 1.50088
1 1.13573 5.03011 4.87431
1 8.75466 0.891373 11.5472
1 11.5945 7.56735 3.41315
1 4.81275 10.6755 11.6917
1 10.9548 4.74443 4.84806
1 4.79799 1.59013 12.2005
1 1.40583 8.45053 4.63953
1 8.13532 10.6575 11.76
1 9.40777 10.1542 2.96038
1 2.12323 10.6128 10.0258
1 1.71637 2.57838 2.96556
1 11.2891 2.00978 10.3965
1 1.2811 10.4175 2.58126
1 9.59804 10.533 8.82591
1 9.87163 1.90957 3.80998
1 2.55327 3.19742 10.4873
1 12.4488 1.0215 1.62271
1 11.7753 12.7118 8.07691
1 11.7656 10.7731 0.932618
1 1.88007 0.534257 8.59095
1 1.2714 11.311 12.9738
1 0.656252 12.5785 4.76908
1 0.591418 1.21758 12.2803
1 10.4606 11.8462 5.13764
96
 Atoms. Timestep: 4000
2 12.0379 7.51309 5.19263
2 5.45685 12.2647 10.816
2 2.43376 4.00288 6.88462
2 11.1513 10.1365 0.925547
2 12.2234 2.8225 4.23523
2 7.58564 0.221841 0.917657
2 0.0797733 6.30339 7.90039
2 4.43012 2.18395 5.15795
2 10.001 5.9511 10.8974
2 4.62048 10.964 13.1654
2 2.97798 0.771911 6.28982
2 7.05352 2.02408 0.149057
2 1.20197 8.587 6.80579
2 8.88706 10.9487 12.8703
2 9.44133 4.12516 6.46675
2 6.35973 1.95331 10.7624
2 9.16793 7.07809 6.10074
2 6.58723 10.6513 12.9768
2 0.741072 7.18539 4.47629
2 1.80504 5.92384 5.80912
2 11.8582 8.20839 7.80542
2 5.23889 1.1079 2.26478
2 0.0567778 4.14158 6.76633
2 5.93142 11.1468 1.62196
2 10.5765 9.70108 7.54685
2 2.72297 10.1569 1.84628
2 1.84465 3.97208 9.14477
2 7.24498 1.87306 2.89883
2 1.46359 8.80176 9.33742
2 8.14728 10.0722 2.18483
2 10.3036 3.5266 8.58277
2 2.9323 2.95571 3.14889
2 1.83828 4.59841 3.64303
2 7.77619 3.88418 10.9461
2 9.14097 9.56361 5.29045
2 4.13877 10.2254 10.7873
2 8.54532 4.61717 4.09659
2 3.74529 1.44092 9.33124
2 1.60885 9.32627 4.30559
2 10.6639 10.0513 10.8508
2 0.368787 11.7649 0.92813
2 1.75566 12.0545 6.7983
2 10.8446 1.69171 11.9517
2 11.43 -0.0870223 6.54258
2 11.1654 0.36044 1.64111
2 0.0389607 11.8902 8.26574
2 0.133066 12.4308 11.9683
2 0.220996 12.6795 4.65116
2 9.27003 2.33851 2.13321
2 10.5642 11.4236 8.50294
2 12.4041 10.877 2.73237
2 1.47422 1.14065 9.01
2 12.0998 2.61489 2.23308
2 2.31024 11.4549 9.66414
2 10.2427 11.3547 3.83722
2 11.3108 1.94602 7.0548
2 1.32059 10.1325 11.6667
2 1.74255 1.93298 4.46058
2 11.3107 0.282599 9.83541
2 12.6356 10.4196 5.55813
2 2.94573 12.0219 0.20389
2 10.7699 2.46592 4.04862
2 0.6819 2.24484 10.9817
2 2.07868 11.6014 3.92349
1 1.0844 5.05077 7.45341
1 4.10858 11.2619 1.38836
1 3.3558 2.51225 6.67879
1 6.73483 1.28087 1.53991
1 0.83412 7.73222 8.28529
1 7.60301 11.0318 0.749689
1 11.1589 3.88576 7.15187
1 4.31275 2.00668 3.45538
1 1.98955 6.03633 4.1647
1 7.37763 2.68005 12.0185
1 10.1059 7.91046 5.33746
1 5.4267 10.8052 11.5813
1 8.6093 5.46333 5.77953
1 5.06975 1.06463 10.3248
1 0.482341 8.79952 5.40769
1 10.0676 9.80686 12.7684
1 8.85933 10.3392 4.05068
1 2.506 9.95723 10.231
1 0.950315 3.02709 3.44078
1 9.14056 4.47982 9.90719
1 1.59769 10.0615 2.99652
1 10.0375 9.83763 9.34979
1 8.74071 2.80125 3.62945
1 2.05086 2.11884 10.0264
1 10.7333 1.82792 1.55022
1 11.4139 0.142323 8.02364
1 11.6926 11.4786 1.62469
1 1.59974 12.3261 8.51069
1 1.24558 11.3148 12.8821
1 2.10063 0.0397052 5.15559
1 12.1038 1.13174 11.0143
1 11.6736 11.8243 5.05536
96
 Atoms. Timestep: 6000
2 11.4177 8.6269 5.61637
2 4.91404 2.73238 11.3393
2 3.00147 3.4425 6.88234
2 8.43299 11.5627 12.0043
2 5.65696 0.758457 5.44934
2 6.95653 0.482379 13.2284
2 2.25468 6.44612 7.71864
2 5.98768 3.16745 6.29012
2 9.01774 6.79441 10.164
2 4.42347 8.83107 12.4871
2 4.52428 1.21709 7.23316
2 8.98847 2.43097 12.5959
2 0.234623 9.23866 7.18584
2 6.69553 11.6558 10.6976
2 9.26032 4.75622 5.86244
2 7.46326 2.24836 10.6249
2 9.72207 6.29633 4.24153
2 5.86503 9.85241 11.1221
2 10.8838 1.05064 12.6082
2 2.96928 5.68623 5.57673
2 1.31336 8.2572 5.83981
2 5.37596 2.26101 3.5007
2 0.301564 4.24332 6.98576
2 5.58121 10.5812 0.608141
2 6.25616 7.4515 10.1383
2 3.82866 9.7835 2.5902
2 3.32706 2.59716 9.05655
2 8.44704 2.45884 2.364
2 2.36976 8.57162 8.37762
2 7.68409 7.88498 7.99688
2 10.1765 5.48402 7.99777
2 2.50237 4.31616 2.41526
2 0.875515 6.04073 3.68714
2 9.73353 3.88256 10.616
2 9.11888 7.48958 5.73852
2 3.71898 9.02378 10.331
2 8.35427 3.30562 3.62831
2 5.76396 3.25608 8.66128
2 1.34068 10.2003 4.81005
2 8.01646 9.63104 10.1858
2 12.7293 10.3876 0.818728
2 2.80777 12.7075 7.58444
2 3.9229 2.8121 3.12983
2 8.78509 11.497 8.91682
2 10.751 11.5248 0.534912
2 12.2915 0.298312 8.60267
2 0.142666 11.6545 11.9982
2 12.1352 10.8847 3.27758
2 11.432 1.56601 3.22022
2 9.51188 1.77556 9.29185
2 2.64222 8.34527 3.84376
2 1.6862 0.979139 10.057
2 11.301 0.54565 2.1075
2 2.05409 10.672 9.42808
2 8.88742 9.76151 6.40122
2 10.5326 2.86452 7.57025
2 1.15652 8.90451 11.3591
2 12.5511 4.25029 3.08068
2 11.1433 1.02156 10.1593
2 10.7944 10.8856 6.30755
2 2.97819 10.2708 13.1918
2 10.6772 3.51973 5.36804
2 1.27933 1.88468 11.8014
2 3.24131 11.1398 5.74193
1 2.19739 4.99567 6.79452
1 4.24263 9.81256 0.983429
1 4.74075 2.87551 7.68325
1 8.35948 1.54469 0.882857
1 1.38257 7.9446 7.39007
1 6.29611 11.3257 12.3786
1 10.9429 4.34213 6.92482
1 6.28252 2.31708 5.06067
1 1.48187 7.39035 4.59204
1 8.94124 2.30369 10.8368
1 10.4359 7.90867 4.39975
1 5.04632 8.57483 10.7799
1 8.76248 4.87224 4.21714
1 6.14211 2.95578 10.1971
1 12.1328 10.0366 5.88891
1 7.35738 10.8928 9.36419
1 8.0914 8.37152 6.63087
1 2.15334 9.1587 9.89644
1 1.2929 5.1982 1.94621
1 9.52575 5.26601 9.56985
1 2.99488 10.1261 4.36022
1 7.96734 7.81395 9.64423
1 11.4622 3.16105 3.73889
1 2.22991 2.47171 10.2326
1 11.6597 11.1785 1.72121
1 11.224 1.68733 8.58629
1 9.32755 12.2902 12.8708
1 1.39342 12.4005 8.98033
1 1.15365 9.93643 12.6363
1 4.14298 12.4505 6.18325
1 12.1068 1.0478 11.7429
1 9.296 11.4359 6.90677
96
 Atoms. Timestep: 8000
2 7.43356 4.25279 5.3889
2 8.04127 4.05709 12.3467
2 0.384246 3.71936 9.34686
2 7.39803 11.204 -0.111119
2 5.78646 1.00674 7.54548
2 11.7371 0.771098 13.2159
2 1.07346 6.51414 7.99155
2 7.17249 2.95032 5.70002
2 7.06473 6.52273 10.8271
2 4.88957 9.43376 12.6946
2 3.30129 2.34904 7.0608
2 10.5056 0.653301 2.7016
2 0.880806 7.91833 5.67412
2 8.53866 10.5838 11.3638
2 10.6754 4.16491 3.87558
2 7.90511 1.98367 11.0983
2 8.86346 5.75675 4.14191
2 5.48835 11.3817 11.876
2 10.1615 12.0919 11.7438
2 3.31008 8.51618 3.74886
2 2.60364 7.20028 6.36215
2 7.43652 2.54782 8.78027
2 11.9935 4.85464 7.00306
2 4.67773 11.5496 0.766363
2 5.82004 8.4908 10.788
2 3.5793 9.06201 1.80051
2 1.77412 4.43097 7.5804
2 11.1801 2.83925 1.12749
2 1.97787 9.10141 7.76937
2 6.4973 7.57572 7.94384
2 10.137 5.232 5.67885
2 1.05146 9.08677 3.4302
2 8.59897 1.15463 7.08838
2 8.90564 4.27701 10.1247
2 7.87137 6.47506 6.57226
2 3.5586 9.95777 10.3211
2 10.7524 4.32749 1.4269
2 6.29829 1.45133 13.1979
2 2.34637 11.481 5.4102
2 7.6392 9.06193 9.25972
2 0.0324349 8.85188 13.1483
2 0.657888 11.2665 6.98049
2 11.6209 8.78105 2.98229
2 12.0946 1.82998 7.8958
2 10.5537 10.3929 0.15049
2 10.8625 12.342 7.80033
2 12.5982 11.096 11.5324
2 10.6033 7.55259 0.634362
2 2.62585 4.89604 4.89908
2 9.9892 1.97451 8.89678
2 3.18093 9.39356 5.75979
2 1.13696 0.98472 8.90108
2 11.5252 10.5501 1.97549
2 0.666232 10.3772 9.04218
2 5.42273 8.06186 5.32257
2 10.6712 2.51036 6.01969
2 1.47648 9.4355 10.9009
2 0.992632 7.02079 3.18292
2 10.5528 9.99556 9.00928
2 11.7352 10.2862 4.49642
2 2.41685 10.5368 0.118416
2 0.250045 4.71838 4.31408
2 11.9398 1.53821 10.8039
2 3.57762 11.8248 7.23502
1 0.351448 5.0419 8.37257
1 3.93506 10.0799 0.752302
1 2.58942 3.78238 6.26962
1 10.6756 1.36133 1.20792
1 1.46996 7.73371 7.26167
1 5.98637 12.1351 13.0724
1 11.2679 4.05577 5.37647
1 6.98424 2.13818 7.19157
1 3.71216 8.04301 5.3425
1 8.72488 2.69851 9.67089
1 8.40587 5.40735 5.66731
1 4.76383 9.73313 11.2458
1 9.45701 4.67834 2.71459
1 7.14298 2.56307 12.3974
1 12.4355 9.00348 4.78917
1 8.99037 10.0304 9.89362
1 6.77493 8.11173 6.30063
1 2.20699 9.64571 9.32082
1 2.3083 8.25189 2.39299
1 8.12618 5.2561 11.2831
1 2.20179 10.403 6.62248
1 6.8766 7.74384 9.49574
1 1.62665 5.35696 3.70741
1 0.0526027 2.16115 9.38558
1 11.3813 9.03304 1.06009
1 10.6283 1.46647 7.38894
1 9.05886 11.2062 12.8577
1 12.4757 11.8304 8.2961
1 1.02152 9.98551 12.2496
1 4.17765 0.821813 7.34511
1 11.6669 0.15934 11.8704
1 11.0038 11.6145 3.44095
96
 Atoms. Timestep: 10000
2 8.26968 5.25854 4.76534
2 5.72066 2.19967 11.8976
2 12.3524 4.11534 10.0643
2 10.3143 7.73567 12.4867
2 5.96305 1.65186 6.23293
2 11.357 1.87307 12.9928
2 1.28035 6.38787 9.0545
2 7.32731 3.88393 5.48781
2 5.67501 5.16497 11.2464
2 4.59355 9.15998 11.768
2 3.50041 2.56519 6.27017
2 0.282443 1.94937 2.88028
2 12.303 7.99441 6.66633
2 9.3286 9.52613 10.34
2 7.17473 10.1564 2.16686
2 8.47235 2.04944 0.444299
2 7.98363 7.42976 3.6395
2 6.26516 10.1807 9.76708
2 10.3265 11.0883 12.5058
2 3.52428 7.62604 4.31189
2 2.60887 7.11811 7.35764
2 7.96361 2.39383 8.00136
2 0.314121 6.01292 6.81435
2 4.88859 10.093 0.701631
2 4.77264 7.78412 10.0475
2 3.05276 7.7368 1.7284
2 1.50349 4.07701 7.31912
2 0.659205 3.86109 2.25836
2 2.13415 9.19749 8.19356
2 6.16194 6.48417 8.3241
2 10.5064 6.54794 5.20889
2 1.25227 7.88103 4.34507
2 8.90658 2.01253 5.83869
2 7.39253 2.76018 10.5698
2 8.26812 7.07052 6.58314
2 3.61389 10.5395 9.67514
2 10.0558 2.83064 2.00932
2 6.29758 0.6045 1.2551
2 1.53134 9.73169 5.352
2 6.91829 7.50953 10.1855
2 0.356939 9.59778 0.772845
2 2.59262 0.280048 7.17385
2 11.2419 9.83417 4.01905
2 10.4094 3.48277 6.9895
2 12.1195 8.39814 2.66724
2 11.7847 1.00587 6.06535
2 0.33621 11.7165 11.5347
2 9.85871 9.17478 2.4329
2 1.50306 2.88249 4.45176
2 10.116 3.23092 9.12002
2 3.52443 9.11885 6.11647
2 0.439048 2.05109 8.40308
2 11.8822 11.4333 2.73333
2 1.20729 11.4051 8.53365
2 5.57592 7.50818 6.03697
2 11.6201 3.88105 5.41066
2 12.0486 9.75935 11.2245
2 2.58133 5.19938 2.78208
2 7.74575 8.16876 8.28315
2 1.41069 11.8721 4.98093
2 2.53627 9.54002 0.231896
2 0.890277 4.78197 4.44466
2 11.1039 1.24768 10.5021
2 4.00938 11.9929 5.64156
1 0.873259 4.83763 8.84304
1 3.93542 8.84377 0.497458
1 2.00298 2.69412 5.95211
1 11.8606 2.73982 1.55065
1 1.16269 7.69514 7.81203
1 6.13411 11.049 1.39131
1 11.7898 5.63393 5.57353
1 7.3222 2.51679 6.40048
1 4.0093 7.61495 5.87235
1 8.40321 3.12863 9.29202
1 8.87279 6.71357 4.90689
1 4.74124 9.5124 10.2179
1 8.10241 8.49116 2.34882
1 7.10879 1.23708 12.9435
1 12.3651 8.729 5.32522
1 7.8142 9.05864 9.68412
1 6.83235 7.16272 7.20038
1 2.07436 10.3968 9.26221
1 2.53642 6.84796 3.3523
1 5.76742 3.49294 10.9784
1 2.53147 10.949 5.95626
1 5.60963 6.40986 9.95914
1 2.14167 3.72728 3.27143
1 11.5779 2.65104 9.64178
1 11.576 9.7483 2.41678
1 10.6305 2.27682 5.96897
1 10.226 9.15325 11.8014
1 1.1715 0.881763 7.33477
1 1.18954 10.0531 12.0332
1 4.38442 1.10626 6.71929
1 11.203 0.569737 11.9177
1 0.202721 0.483953 3.94862
96
 Atoms. Timestep: 12000
2 6.82984 7.22668 3.3469
2 4.75215 2.56294 12.2762
2 11.8854 3.66177 6.90085
2 9.70259 10.1882 10.6627
2 5.80425 1.17017 6.6241
2 11.5716 1.64398 1.37871
2 1.24568 5.95328 8.55626
2 7.0431 3.41501 8.16478
2 5.85267 4.10172 10.6008
2 4.06714 7.93695 11.9575
2 3.80269 1.94335 5.71595
2 2.62615 0.851383 1.63
2 0.768917 8.63825 6.33609
2 8.98416 8.32724 11.7316
2 7.77938 11.0263 1.28455
2 3.66887 2.9249 1.57961
2 7.8727 9.03343 3.55969
2 6.28101 8.07911 10.4996
2 10.6349 11.2421 12.6486
2 4.53223 7.40667 4.18404
2 2.83781 7.22209 6.63278
2 7.86808 0.419998 8.86576
2 11.9118 6.61995 6.45517
2 5.04619 10.7373 0.626587
2 5.85199 6.05597 9.53367
2 4.03542 8.52779 1.49564
2 2.49251 3.79357 6.74842
2 0.244925 3.9347 2.61881
2 1.82879 8.70575 8.06236
2 7.78311 5.88476 8.03459
2 9.46374 6.718 4.79793
2 1.5822 7.93142 3.94589
2 8.7246 2.10596 6.85276
2 7.06569 1.64776 11.7968
2 7.2009 8.31346 6.12279
2 3.52985 7.98395 9.37286
2 9.54239 3.36464 2.1233
2 5.39066 1.03278 0.909454
2 2.44669 10.4641 5.22913
2 7.75211 6.09049 10.3078
2 10.2383 1.12295 3.43838
2 2.75514 1.69232 7.94069
2 11.629 10.2321 4.68249
2 10.2337 2.78073 8.02095
2 1.84011 9.54753 10.2519
2 11.2499 1.76007 5.66997
2 0.653593 11.334 12.4065
2 9.3379 11.0023 3.68224
2 2.33763 3.75811 3.92522
2 8.81575 11.4766 10.4356
2 4.17315 9.24886 5.15011
2 0.599219 2.57895 8.7338
2 0.459827 11.5191 2.3604
2 2.03736 11.3504 8.94422
2 5.50597 7.45962 7.30895
2 10.2618 4.20025 5.31477
2 11.8305 9.11966 12.1568
2 2.5574 5.77768 2.68813
2 7.86721 8.67761 8.80847
2 3.18861 11.1622 3.04105
2 2.81687 10.0693 12.216
2 12.3862 6.29114 4.38696
2 11.0571 1.63227 10.9638
2 4.56228 11.5947 6.03493
1 1.11845 4.2346 8.00943
1 4.16382 9.3884 12.541
1 2.65843 3.02809 5.32116
1 10.8091 2.74421 2.49717
1 1.37228 7.14272 7.3775
1 6.40552 11.6666 1.19175
1 10.935 5.88146 5.13145
1 7.34665 1.78815 7.57193
1 4.40288 7.65991 6.11742
1 7.45968 0.403462 10.4979
1 7.88713 7.94379 4.71545
1 4.78429 7.2298 10.4459
1 8.57165 10.1073 2.34736
1 3.93445 1.62544 0.44644
1 1.05549 9.76197 4.86972
1 7.93397 7.82703 10.4668
1 7.18486 7.68017 7.49206
1 2.77472 9.75057 8.97495
1 3.27972 7.23843 2.8503
1 6.28873 3.05476 11.78
1 3.82785 10.7951 4.60919
1 6.92034 4.81138 9.24296
1 1.31439 4.92708 3.44749
1 11.0587 2.41979 9.41941
1 10.899 11.4667 3.61585
1 10.2922 2.79454 6.33802
1 10.1581 9.50096 12.2684
1 1.22685 1.16813 8.08675
1 1.18182 9.89084 11.8547
1 4.23488 1.13527 7.01318
1 11.5882 0.731803 12.607
1 1.96436 11.4097 1.77021
96
 Atoms. Timestep: 14000
2 6.88347 7.81131 4.70511
2 5.83349 3.0788 12.3285
2 0.412388 4.5359 6.1089
2 0.433847 11.2191 9.86234
2 3.67193 1.95756 8.67961
2 9.79967 1.79608 0.652144
2 10.6161 5.86503 6.57345
2 6.46093 5.9169 6.64827
2 6.69919 5.10208 9.79146
2 5.55657 7.58573 0.758839
2 1.11234 1.81373 7.81304
2 3.95507 1.02887 0.581686
2 1.76299 8.4914 4.6817
2 10.3501 8.77554 11.0375
2 7.81379 11.5188 2.97944
2 6.37329 2.64166 1.93617
2 8.42882 9.23684 3.90965
2 7.71145 8.54542 11.4942
2 10.0505 11.1003 11.3368
2 5.05873 8.20352 3.56646
2 4.15591 7.50371 5.61085
2 8.36239 1.25806 11.4599
2 1.19312 6.39832 5.73002
2 5.30867 10.0356 1.78701
2 6.30003 6.73157 8.52092
2 3.87556 6.57832 2.3671
2 11.1964 1.92909 6.00677
2 10.4587 3.51201 2.13716
2 1.77944 7.90202 7.29885
2 5.39989 3.14934 10.3002
2 10.1023 6.41151 4.54409
2 1.44987 7.27335 2.94357
2 7.35696 1.91049 8.67315
2 7.74968 3.44065 10.6072
2 7.90181 7.22656 6.41375
2 11.5163 6.98883 8.76469
2 7.76217 3.38939 2.38427
2 6.33293 12.7492 0.962005
2 3.22115 8.86233 1.53875
2 8.17858 4.9277 7.96527
2 8.7652 1.30304 3.45614
2 2.97595 11.9458 8.67121
2 0.352589 9.82327 2.71592
2 10.9147 4.65272 9.3854
2 2.07216 7.14941 10.6239
2 10.8121 4.02025 7.43323
2 11.4045 11.8572 0.361205
2 10.424 11.1965 2.59922
2 11.825 2.6093 3.66095
2 9.8469 2.61283 9.67715
2 4.56826 9.85405 4.70082
2 0.683365 3.0517 10.5019
2 1.42255 12.0968 2.22328
2 2.81166 10.1081 11.1701
2 6.21942 8.92813 6.76777
2 9.71521 6.47038 9.54349
2 2.80071 7.78463 11.8702
2 0.703126 5.04422 1.55898
2 8.36085 8.44814 8.96197
2 4.80587 12.0367 3.40202
2 3.23893 10.8445 1.07915
2 11.7039 4.56566 4.14673
2 10.8945 1.73474 11.1893
2 3.62095 0.521948 5.89405
1 11.9378 2.91184 6.98182
1 4.59299 8.43332 1.95224
1 10.8733 1.31796 4.23863
1 9.25216 2.65622 2.43287
1 2.49618 7.6686 5.90162
1 6.3246 11.5506 2.31953
1 11.7658 5.98751 5.10277
1 5.46619 1.94057 8.86569
1 5.27885 8.55475 5.16685
1 8.22687 2.10809 9.95541
1 8.49736 7.36669 4.61766
1 6.25348 8.22062 12.2642
1 8.85507 10.423 2.71449
1 5.82797 1.80378 0.516857
1 1.71318 8.79375 3.08059
1 8.77873 8.08098 10.4197
1 6.91787 8.00629 7.93897
1 1.07677 7.25409 8.969
1 1.92394 5.86038 2.18545
1 6.37658 4.16453 11.0358
1 4.28332 11.4676 5.0375
1 6.48652 4.96338 7.95019
1 11.9543 3.89855 2.79572
1 11.5 3.01634 9.92884
1 11.8617 11.1717 1.96028
1 10.2279 5.58598 8.16278
1 11.4935 10.0062 10.4506
1 2.25262 11.0531 9.95101
1 2.80111 9.33765 12.6373
1 2.80038 1.25171 7.71265
1 10.0433 0.56965 12.2356
1 2.64341 12.3975 1.28918
96
 Atoms. Timestep: 16000
2 4.38237 7.59263 4.3104
2 3.34271 4.42553 1.71031
2 3.12234 4.02676 5.24798
2 10.8233 5.35665 11.167
2 4.90213 0.534209 8.4451
2 9.55325 1.90961 1.25886
2 11.6365 6.73598 7.48012
2 7.64857 2.95618 8.12637
2 5.46295 4.53987 9.54583
2 5.50464 7.14565 1.05497
2 2.47112 2.69895 8.16705
2 4.94588 5.26172 2.45589
2 0.745792 9.61367 4.15173
2 10.5447 7.11179 9.41653
2 7.27567 11.7134 2.80841
2 4.98326 3.88545 12.5901
2 8.72226 9.39071 3.94362
2 6.47776 7.57554 11.6528
2 8.80861 7.46647 11.3912
2 6.64605 7.01105 3.8297
2 2.66744 8.70249 5.70748
2 9.15819 0.997557 11.098
2 12.065 7.40588 5.48363
2 3.73837 7.76354 1.68791
2 6.12402 4.98159 7.23985
2 3.56965 5.41307 12.0278
2 0.757047 4.60709 5.90654
2 10.0417 4.22337 2.57701
2 2.26345 10.0237 10.2662
2 5.61736 2.48399 9.85033
2 9.86716 6.87751 4.9883
2 2.10733 6.84824 1.05428
2 7.54226 1.04867 9.34972
2 7.76857 3.64408 10.541
2 7.63202 7.45189 6.26933
2 2.23515 7.65181 8.6619
2 7.70013 2.46061 3.21306
2 5.63418 2.33203 2.63904
2 3.30575 9.90801 12.7758
2 4.99009 2.42727 7.24508
2 10.5062 1.93846 3.51057
2 2.56019 0.455601 8.8661
2 10.6938 9.79838 11.7083
2 12.0343 5.10258 9.25511
2 3.9992 7.78432 10.8972
2 1.81444 5.32776 7.54959
2 11.4076 12.0647 0.538588
2 10.049 10.0555 1.43038
2 0.902355 3.78264 2.40625
2 10.4942 3.12677 9.84208
2 5.00542 9.41322 6.28021
2 0.620344 2.81225 10.0795
2 1.13485 9.70036 1.49073
2 1.93448 0.469435 10.8583
2 4.99295 7.13846 6.94914
2 6.15682 5.21296 11.5236
2 4.78822 11.8817 10.7656
2 0.830746 5.13594 0.703502
2 6.95349 6.40923 8.86401
2 6.04382 0.597117 5.32425
2 1.25731 0.593758 3.10457
2 11.9294 5.46537 3.66837
2 11.3228 2.52093 11.6878
2 3.78323 12.0123 6.49361
1 1.98363 3.97022 6.76377
1 5.06449 6.78718 2.70127
1 12.1919 2.22637 3.07954
1 9.11627 2.73425 2.53211
1 1.1941 8.52438 5.39377
1 6.44126 1.15884 3.50775
1 11.5252 5.79374 5.50412
1 6.01081 0.886071 9.58205
1 4.18178 8.18733 5.89793
1 8.81713 2.47625 9.72306
1 8.37591 7.70111 4.79338
1 5.14268 6.52349 12.1619
1 8.60316 10.628 2.79041
1 4.75893 3.53175 1.79171
1 2.34031 8.5514 0.815334
1 7.46443 7.1078 10.4049
1 6.42275 6.6824 7.04069
1 2.82145 8.49226 9.85145
1 2.39107 5.23554 0.707065
1 5.76825 3.66394 11.0825
1 5.24618 11.0868 6.21403
1 6.01796 3.5471 8.06047
1 11.5008 5.01571 2.08248
1 11.7341 4.13028 10.5941
1 11.4586 10.497 0.518218
1 1.18465 6.47067 8.52047
1 10.4123 7.26377 11.148
1 1.71113 1.71048 9.71906
1 3.56313 11.12 11.337
1 3.87868 1.4866 7.53647
1 10.1206 1.26907 12.3037
1 1.2321 10.8255 2.82248
96
 Atoms. Timestep: 18000
2 4.93553 6.84422 3.65799
2 2.84682 8.29763 3.05422
2 1.89645 2.73485 6.26456
2 10.5306 4.58955 9.27898
2 4.61392 11.5253 7.18463
2 8.69853 5.20342 12.5148
2 11.5787 5.08961 5.69138
2 6.66681 2.60457 7.53211
2 6.93194 4.98065 10.4587
2 6.15928 6.07043 1.43834
2 3.15401 2.21537 10.4466
2 6.39014 5.0924 3.11038
2 1.35944 9.89856 6.29456
2 11.3751 6.84121 10.1295
2 9.36615 11.9038 3.73777
2 6.77131 2.92289 0.974845
2 9.17561 9.01139 3.36229
2 5.53427 7.11652 10.8566
2 8.46714 6.24916 9.27294
2 7.75479 7.15428 2.03459
2 3.21478 8.10124 5.82149
2 8.49755 12.0077 9.90127
2 0.223097 7.84893 5.38836
2 5.79167 7.85077 2.19333
2 6.30048 5.31901 7.22196
2 3.79497 7.35724 0.557802
2 9.94988 11.2376 11.2655
2 10.0876 7.44131 1.17704
2 2.05581 8.20066 9.925
2 5.0408 4.52654 9.22613
2 9.69509 6.91475 4.67209
2 4.24084 9.6429 1.44385
2 6.57901 11.4786 8.38574
2 7.51636 2.879 10.2101
2 7.14502 6.7957 5.39844
2 1.97257 7.22166 7.57233
2 7.4541 7.25087 11.3409
2 6.91971 1.90618 3.03843
2 7.17717 10.5497 2.4724
2 4.21365 2.96827 7.40452
2 11.882 11.071 9.76545
2 1.94241 0.900623 7.97019
2 2.21891 9.45385 11.9154
2 11.4072 3.85896 7.60642
2 2.70499 4.93183 9.70062
2 0.805314 5.69724 8.10634
2 10.2866 2.54596 0.974079
2 10.7583 11.131 1.94724
2 11.3355 5.06411 1.01896
2 8.91913 2.00649 8.09919
2 4.68569 9.60803 4.13164
2 11.5745 2.10916 9.56445
2 10.5542 10.8257 5.08458
2 2.54823 11.1764 10.4815
2 5.29925 7.90378 5.58436
2 5.04851 4.68712 11.2475
2 4.19708 9.71587 9.44651
2 1.52674 7.24022 1.20419
2 6.41576 7.13659 8.4102
2 6.81322 11.6607 4.63001
2 10.5029 11.0216 7.91144
2 11.7011 6.01352 3.03311
2 10.3875 3.22325 10.7337
2 4.07422 0.995556 5.2741
1 3.74442 3.92513 10.3343
1 6.39374 6.55602 3.01485
1 10.0335 11.0841 9.4983
1 8.58369 6.95068 0.657473
1 1.92813 8.37207 6.54121
1 7.77486 11.8711 3.19816
1 11.2219 6.24393 4.61864
1 5.3058 10.5689 8.54817
1 4.05126 8.27569 4.44573
1 7.36878 1.6413 8.83321
1 8.49089 7.74308 4.28844
1 5.07696 6.3302 12.18
1 10.3296 10.5192 3.42678
1 6.81988 3.64248 2.5358
1 5.58725 9.46278 2.3564
1 6.91335 6.58829 9.97533
1 6.01507 6.91339 6.87389
1 1.99815 6.6371 9.45901
1 2.77224 8.60727 1.3474
1 6.61552 3.39038 11.3341
1 5.20249 11.0727 4.94166
1 5.34855 3.94653 7.57927
1 11.3834 6.70274 1.66693
1 10.4135 3.01139 8.94274
1 10.5547 0.857713 0.605288
1 1.16561 4.67969 6.89301
1 9.95687 5.97062 9.80565
1 2 1.19756 9.56087
1 2.82289 9.59291 10.2668
1 2.98904 1.48134 6.63098
1 9.57108 3.74006 12.0913
1 11.1176 10.33 6.54773
96
 Atoms. Timestep: 20000
2 5.7872 7.80124 3.29988
2 4.26556 8.18217 5.15977
2 2.86238 2.19601 5.29634
2 10.0434 4.11505 8.55602
2 7.07322 10.7773 7.68105
2 10.3577 4.59043 12.1219
2 11.1022 4.73189 4.94201
2 5.5728 3.05004 8.6514
2 7.7844 2.69692 11.3113
2 5.49017 6.37216 12.3381
2 1.14253 2.75801 10.2265
2 6.95187 5.83802 2.26427
2 1.55482 9.73736 5.9854
2 11.3248 6.27763 8.08105
2 8.30008 10.971 3.62513
2 5.35501 3.14965 1.11147
2 8.27692 8.56359 7.36113
2 6.85222 5.96958 9.49384
2 9.20514 6.99215 9.08979
2 7.91445 3.6403 1.27022
2 4.14585 8.44197 7.30529
2 9.01666 10.0943 8.59472
2 11.787 7.91453 5.67317
2 6.15721 8.93646 1.18743
2 4.84298 5.87899 7.3728
2 3.80078 7.80451 11.391
2 10.129 11.0325 10.8153
2 11.3359 7.0775 1.40006
2 4.45607 11.3274 12.1748
2 4.71648 4.71367 10.1486
2 9.6574 6.43997 5.8545
2 3.63915 9.54415 1.69053
2 6.87667 10.6258 9.83108
2 5.56868 1.73566 10.5894
2 6.58635 7.43388 6.00208
2 2.41225 6.8483 6.66861
2 8.79587 6.7617 11.2226
2 6.39126 2.5983 2.79761
2 5.78645 11.9022 2.74474
2 3.7713 3.08073 7.74563
2 10.3721 1.30288 9.05714
2 2.48283 0.95934 7.70938
2 3.09352 9.68671 10.9024
2 11.673 2.15934 7.18689
2 2.17847 5.19537 9.13322
2 1.74487 4.98846 6.56228
2 9.32525 1.51928 12.3946
2 9.65501 10.2283 1.87182
2 11.2534 6.28958 10.9186
2 7.86414 2.85573 9.10418
2 5.53956 10.4902 4.97922
2 1.49855 5.93734 10.9033
2 9.75876 9.1546 4.51573
2 2.18532 11.5915 9.46302
2 5.98981 8.45222 8.26777
2 3.17455 3.16439 11.7667
2 5.22197 11.2427 9.6033
2 1.71936 8.09966 1.58538
2 7.38989 8.43487 9.83446
2 7.23598 1.02572 5.21736
2 11.1461 10.1277 7.52571
2 11.2728 6.20362 3.30269
2 9.52952 3.19553 10.505
2 5.11007 1.12862 6.41927
1 2.31009 4.31905 10.6119
1 6.20345 7.33749 1.73578
1 10.5288 10.572 9.09215
1 10.2062 6.32268 12.2654
1 2.76776 8.55894 6.03359
1 7.24944 0.904036 3.37448
1 11.2701 6.47584 5.03612
1 7.35247 9.39249 8.58852
1 5.44545 9.07437 4.38018
1 6.6444 2.76114 9.91564
1 8.15905 7.2736 6.10176
1 4.47204 6.33889 11.1684
1 9.31165 9.74291 3.23961
1 6.28209 4.23755 2.24022
1 5.02783 10.4091 1.77874
1 7.74553 7.02818 10.1615
1 5.33378 7.38714 7.29748
1 1.58199 6.06096 7.87208
1 2.93242 8.85715 12.4854
1 4.45778 1.89356 12.2677
1 6.34777 11.0477 6.12626
1 4.35011 4.6551 8.48209
1 1.54579 6.58882 2.24066
1 9.45504 2.84273 9.04327
1 10.149 11.3296 12.5882
1 11.8806 3.50208 6.10299
1 9.87165 5.75838 8.20545
1 0.872177 1.4652 8.78804
1 3.85521 10.985 10.4234
1 3.63909 1.71348 6.67915
1 9.10177 3.1287 11.9685
1 11.0879 9.55994 5.77209
96
 Atoms. Timestep: 22000
2 5.28756 7.61383 3.47426
2 3.39673 8.53316 5.69852
2 2.31266 10.9022 6.90204
2 12.4852 6.05652 12.1793
2 7.66089 11.1914 4.86748
2 8.06373 4.22243 2.82633
2 9.87714 5.42497 5.26935
2 6.32903 2.88361 8.0086
2 8.21275 2.62886 10.3771
2 6.23392 7.09006 0.787422
2 2.21253 3.91863 12.0705
2 6.29885 5.41706 2.08937
2 12.2277 9.49531 5.90685
2 0.817181 6.77111 10.0411
2 7.47071 11.6613 2.03727
2 7.5714 0.56409 12.5351
2 7.57165 9.44081 6.80414
2 6.3345 7.2624 10.862
2 10.4697 7.86389 10.461
2 7.78556 3.59763 12.2721
2 1.96132 8.0282 8.02607
2 9.41318 10.2141 8.47404
2 9.73908 8.58471 6.2514
2 6.60129 8.89129 1.91818
2 5.23682 4.57891 6.85405
2 4.4149 7.85116 11.3368
2 9.58251 11.4993 10.1077
2 10.4127 6.05705 3.2189
2 5.82758 10.8606 12.8098
2 7.97024 3.85328 8.49815
2 7.88629 9.29352 3.90055
2 3.69633 9.28592 12.5847
2 6.38813 10.7144 8.77048
2 6.82775 0.859514 10.1482
2 7.25493 7.16515 5.32702
2 10.7816 6.60423 7.44727
2 9.33782 8.71229 2.67891
2 6.15198 2.37182 1.65782
2 4.35723 9.47019 2.97131
2 3.87772 2.33084 7.28937
2 11.2819 12.1031 7.66123
2 1.57379 0.966706 6.40017
2 3.45179 9.50408 9.82953
2 11.0116 2.82388 6.24471
2 4.28914 3.6219 9.50889
2 12.193 4.91582 7.36218
2 9.24884 1.73046 11.8557
2 8.77611 10.9173 0.599251
2 1.33863 8.79803 11.5666
2 7.85524 5.12769 9.6497
2 5.579 9.77224 5.29435
2 4.92326 4.7293 12.0353
2 9.15621 10.481 4.84469
2 4.02742 11.8715 8.49155
2 6.99678 6.72365 7.77166
2 4.85984 2.16653 11.7379
2 5.01067 11.3486 11.0113
2 11.4795 7.91019 0.863199
2 6.99497 8.33921 8.98419
2 5.60343 0.150049 3.53798
2 11.2911 10.0317 7.696
2 10.9241 7.80773 4.44306
2 10.9269 3.5324 12.1701
2 4.77603 12.1148 5.8002
1 3.79268 3.50695 11.4687
1 6.36586 7.11887 2.43268
1 11.1113 10.9785 9.10621
1 9.13057 4.89139 3.61778
1 1.90278 8.94138 6.58393
1 6.0045 0.737958 2.0099
1 10.2476 7.02082 5.55571
1 7.62841 9.75062 8.28442
1 4.52886 8.91785 4.45309
1 7.6045 1.99543 8.9917
1 7.81978 8.58925 5.33118
1 5.2251 6.63581 12.2204
1 8.01552 9.87726 2.13096
1 7.27205 3.73725 1.50735
1 5.17609 9.4342 1.01485
1 7.24327 6.55294 9.63156
1 6.22473 6.16822 6.42711
1 0.6951 6.56452 8.3387
1 2.99823 8.84184 11.0845
1 5.97682 0.729682 11.7412
1 6.06056 11.4369 5.07662
1 4.65252 3.30207 8.07816
1 10.84 7.82144 2.68457
1 12.3757 4.5076 12.0888
1 9.20879 12.1398 11.6253
1 10.5934 4.31101 6.34567
1 12.0865 7.48085 11.6189
1 11.9284 1.51062 6.78356
1 4.7083 10.8519 9.34738
1 3.55339 0.714909 6.88748
1 9.22799 3.32343 11.7441
1 10.4344 9.96918 6.3275
96
 Atoms. Timestep: 24000
2 5.14649 10.044 2.47987
2 3.19934 11.2719 3.4889
2 2.18791 1.46892 5.77871