LAMMPS (2 Aug 2023 - Update 3)
units metal
boundary p p p
atom_style full
pair_style tersoff
neighbor 2.0 bin
neigh_modify delay 1




read_data SiO.data
Reading data file ...
  orthogonal box = (0 0 0) to (12.589463 12.589463 13.222096)
  1 by 1 by 1 MPI processor grid
WARNING: Atom style in data file atom-ID molecule-ID atom-type q x y z differs from currently defined atom style full (../read_data.cpp:621)
  reading atoms ...
  96 atoms
Finding 1-2 1-3 1-4 neighbors ...
  special bond factors lj:    0        0        0       
  special bond factors coul:  0        0        0       
     0 = max # of 1-2 neighbors
     0 = max # of 1-3 neighbors
     0 = max # of 1-4 neighbors
     1 = max # of special neighbors
  special bonds CPU = 0.000 seconds
  read_data CPU = 0.004 seconds
replicate 1 1 1
Replication is creating a 1x1x1 = 1 times larger system...
  orthogonal box = (0 0 0) to (12.589463 12.589463 13.222096)
  1 by 1 by 1 MPI processor grid
  96 atoms
Finding 1-2 1-3 1-4 neighbors ...
  special bond factors lj:    0        0        0       
  special bond factors coul:  0        0        0       
     0 = max # of 1-2 neighbors
     0 = max # of 1-3 neighbors
     0 = max # of 1-4 neighbors
     1 = max # of special neighbors
  special bonds CPU = 0.000 seconds
  replicate CPU = 0.001 seconds

pair_coeff * *  /root/Desktop/host/job1/SiO.tersoff Si O
Reading tersoff potential file /root/Desktop/host/job1/SiO.tersoff with DATE: 2010-08-16



group Si type 1
32 atoms in group Si
group O type 2
64 atoms in group O
#create_bonds many SiO SiO 1 0.5 10

dump dmp all xyz 2000 dump.lammpstrj



variable apot equal pe
# first number: number of steps to get current temp
# second number: calculate average n number of temp read above.
# third number: temp record (this must be larger than the one above )

variable atemp equal temp
fix temp_info all ave/time 10 200 2000 v_atemp file temperature.dat

#The cutoff used for pairwise computation (any pair style) and the
#associated neighbor list is the maximum cutoff that any compute
#can use. Atoms don't know any info about their neighbors
#further away than that.

# compute coord number
compute coor12 Si coord/atom cutoff 2.5 group O
compute coor11 Si coord/atom cutoff 2.5 group Si
compute coor22 O coord/atom cutoff 2.0 group O

compute sumcoor12 all reduce ave c_coor12
compute sumcoor11 all reduce ave c_coor11
compute sumcoor22 all reduce ave c_coor22


fix 12coord all ave/time  10 200 2000 c_sumcoor12 file Si-O_coord_number.dat
fix 11coord all ave/time  10 200 2000  c_sumcoor11 file Si-Si_coord_number.dat
fix 22coord all ave/time  10 200 2000  c_sumcoor22 file O-O_coord_number.dat




# unit cell information
variable avol equal vol
variable alx equal lx
variable aly equal ly
variable alz equal lz
fix cell_info all ave/time 10 200 2000 v_avol v_alx v_aly v_alz file cell_volume.dat


fix potential_info all ave/time 10 200 2000 v_apot file potential-energy.dat
thermo 1000



velocity all create 6000 33821 mom yes rot no dist gaussian
fix npt1 all npt temp 6000 5000 0.1 iso 0 0  1
timestep 0.001
#run 500
run 80000
Neighbor list info ...
  update: every = 1 steps, delay = 1 steps, check = yes
  max neighbors/atom: 2000, page size: 100000
  master list distance cutoff = 4.8
  ghost atom cutoff = 4.8
  binsize = 2.4, bins = 6 6 6
  4 neighbor lists, perpetual/occasional/extra = 1 3 0
  (1) pair tersoff, perpetual
      attributes: full, newton on
      pair build: full/bin
      stencil: full/bin/3d
      bin: standard
  (2) compute coord/atom, occasional, copy from (1)
      attributes: full, newton on
      pair build: copy
      stencil: none
      bin: none
  (3) compute coord/atom, occasional, copy from (1)
      attributes: full, newton on
      pair build: copy
      stencil: none
      bin: none
  (4) compute coord/atom, occasional, copy from (1)
      attributes: full, newton on
      pair build: copy
      stencil: none
      bin: none
Per MPI rank memory allocation (min/avg/max) = 6.021 | 6.021 | 6.021 Mbytes
   Step          Temp          E_pair         E_mol          TotEng         Press          Volume    
         0   6000          -638.06385      0             -564.38556      73800.118      2095.6304    
      1000   5836.831      -561.46756      0             -489.79295     -14276.56       2286.6761    
      2000   6575.6984     -532.63706      0             -451.88936      14488.081      2296.9856    
      3000   6403.3522     -546.10748      0             -467.47615      27241.009      2278.5127    
      4000   7276.6645     -521.99542      0             -432.64007     -435.20731      2156.3973    
      5000   5514.9192     -516.61217      0             -448.89054     -22346.265      1728.0534    
      6000   5685.3754     -516.12608      0             -446.3113       35694.548      1987.7252    
      7000   5187.0581     -521.54295      0             -457.84737      44662.386      1726.1535    
      8000   6281.0648     -544.97417      0             -467.84449      9069.5315      2068.8914    
      9000   5667.1594     -540.00554      0             -470.41445      45104.121      1920.6239    
     10000   7083.5367     -531.69093      0             -444.70712     -9367.9747      1911.2155    
     11000   5352.834      -533.56472      0             -467.83345     -11536.621      2045.3978    
     12000   5363.8357     -537.62069      0             -471.75433     -48807.683      1800.8023    
     13000   5422.796      -522.42914      0             -455.83875     -2476.5276      1792.0699    
     14000   5286.7795     -521.43296      0             -456.51282     -49762.353      1908.122     
     15000   6506.6543     -517.74953      0             -437.84967      22712.375      1824.4974    
     16000   5830.0962     -535.67094      0             -464.07903     -13791.204      1747.6573    
     17000   5918.6571     -543.29088      0             -470.61147      38916.963      1531.8742    
     18000   7432.3884     -554.55214      0             -463.28454      86053.794      1503.6575    
     19000   6796.0916     -539.90163      0             -456.44757     -57278.298      1650.1617    
     20000   5988.6257     -533.02782      0             -459.48921      32737.38       1522.8286    
     21000   5796.2625     -545.17381      0             -473.99737     -22812.813      1498.7391    
     22000   5798.9146     -538.90221      0             -467.6932      -45137.368      1766.5552    
     23000   5390.5338     -521.67006      0             -455.47585     -37466.4        1531.079     
     24000   5666.7859     -521.25732      0             -451.67082      13556.29       1532.3711    
     25000   5939.4035     -536.16394      0             -463.22976     -26464.145      1491.5664    
     26000   5877.0555     -537.99141      0             -465.82285      6112.3386      1545.0777    
     27000   5112.4424     -534.33322      0             -471.55389     -23209.573      1464.8606    
     28000   5289.4847     -527.21477      0             -462.26142      56582.173      1494.6983    
     29000   5861.6383     -532.07576      0             -460.09652      1692.4216      1533.5255    
     30000   5288.3764     -547.75405      0             -482.8143      -18218.032      1590.0105    
     31000   5074.1935     -541.64949      0             -479.33985      17156.784      1538.9093    
     32000   5661.1805     -544.09457      0             -474.57689      20575.944      1596.3349    
     33000   5281.5502     -548.68483      0             -483.82891      34219.227      1494.7229    
     34000   5597.7303     -535.89455      0             -467.15602     -9980.1591      1474.6257    
     35000   5302.1122     -540.95998      0             -475.85156      32301.394      1366.7863    
     36000   5173.038      -543.89434      0             -480.37092     -22778.358      1526.5803    
     37000   5428.0419     -545.24812      0             -478.59332      43287.157      1409.5569    
     38000   5438.226      -540.57415      0             -473.79429     -29592.761      1503.6648    
     39000   5418.3909     -551.25552      0             -484.71923      13702.065      1370.0113    
     40000   4787.491      -557.00656      0             -498.21755     -6162.3303      1366.6085    
     41000   5525.5161     -536.80509      0             -468.95334     -5642.1962      1412.8987    
     42000   6791.5463     -555.39257      0             -471.99432     -7064.5928      1402.3194    
     43000   5585.4507     -549.54771      0             -480.95998      6819.3769      1397.7901    
     44000   5571.1463     -549.35549      0             -480.9434      -3649.0335      1392.1518    
     45000   5507.7058     -550.82657      0             -483.19352      47827.494      1516.2622    
     46000   6263.9927     -541.49115      0             -464.57111     -48164.719      1448.1831    
     47000   6019.0685     -554.06508      0             -480.15264     -21127.957      1451.7437    
     48000   5051.1285     -547.72878      0             -485.70236     -36007.234      1454.0897    
     49000   5730.3764     -542.93342      0             -472.56604      70215.172      1319.5289    
     50000   3948.0021     -551.19155      0             -502.71122      22219.3        1514.1644    
     51000   5829.2863     -548.28053      0             -476.69856     -30140.152      1647.4986    
     52000   5581.9622     -554.87503      0             -486.33013     -26563.187      1484.4408    
     53000   5788.7392     -556.28713      0             -485.20307     -44138.417      1618.421     
     54000   5073.5715     -544.27574      0             -481.97373     -32157.52       1467.6039    
     55000   5163.2758     -545.36348      0             -481.95993     -24724.239      1372.1298    
     56000   5651.1927     -554.34945      0             -484.95442      70383.959      1495.8187    
     57000   5218.787      -543.2767       0             -479.19149     -1466.1803      1404.2367    
     58000   4337.9162     -538.68358      0             -485.41521     -11284.202      1466.3154    
     59000   5138.4646     -551.22536      0             -488.12649     -16284.437      1332.8175    
     60000   5262.7026     -544.2789       0             -479.65442      3227.6815      1389.4906    
     61000   4450.2422     -548.77916      0             -494.13146     -24069.323      1375.8701    
     62000   5360.9107     -546.06014      0             -480.22969     -68546.314      1703.6102    
     63000   5010.1494     -553.22145      0             -491.69825     -31391.368      1558.4818    
     64000   5163.3427     -560.41201      0             -497.00764      19557.983      1485.979     
     65000   4776.4918     -561.38658      0             -502.73263      24010.185      1455.5861    
     66000   5529.7488     -552.03279      0             -484.12905      9176.8867      1544.5815    
     67000   5187.083      -558.52671      0             -494.83081      63942.683      1502.6419    
     68000   5439.8975     -556.10985      0             -489.30947      18299.81       1493.7792    
     69000   5109.3005     -551.498        0             -488.75725     -35023.563      1546.5282    
     70000   5381.1064     -551.23967      0             -485.16122     -52140.393      1587.2246    
     71000   5417.2816     -545.43831      0             -478.91564      1549.643       1370.1059    
     72000   5464.5784     -556.72397      0             -489.62051      24704.506      1471.1518    
     73000   5149.8513     -561.48775      0             -498.24905      9658.1791      1328.2509    
     74000   5200.4835     -547.92616      0             -484.06571     -24969.74       1415.0164    
     75000   5302.6429     -553.04723      0             -487.9323      -34708.337      1443.3644    
     76000   5211.4621     -558.40304      0             -494.40778      89240.637      1303.8467    
     77000   5188.6863     -538.83949      0             -475.1239      -50938.831      1344.6301    
     78000   5244.7004     -555.03954      0             -490.63612     -59135.59       1393.8381    
     79000   4387.5913     -552.36144      0             -498.48308     -25499.172      1397.9189    
     80000   4925.404      -549.43716      0             -488.9546       14878.249      1378.1596    
Loop time of 7.18651 on 1 procs for 80000 steps with 96 atoms

Performance: 961.803 ns/day, 0.025 hours/ns, 11131.975 timesteps/s, 1.069 Matom-step/s
99.3% CPU use with 1 MPI tasks x no OpenMP threads

MPI task timing breakdown:
Section |  min time  |  avg time  |  max time  |%varavg| %total
---------------------------------------------------------------
Pair    | 5.9428     | 5.9428     | 5.9428     |   0.0 | 82.69
Bond    | 0.0035275  | 0.0035275  | 0.0035275  |   0.0 |  0.05
Neigh   | 0.47283    | 0.47283    | 0.47283    |   0.0 |  6.58
Comm    | 0.2194     | 0.2194     | 0.2194     |   0.0 |  3.05
Output  | 0.013058   | 0.013058   | 0.013058   |   0.0 |  0.18
Modify  | 0.49177    | 0.49177    | 0.49177    |   0.0 |  6.84
Other   |            | 0.04316    |            |       |  0.60

Nlocal:             96 ave          96 max          96 min
Histogram: 1 0 0 0 0 0 0 0 0 0
Nghost:            550 ave         550 max         550 min
Histogram: 1 0 0 0 0 0 0 0 0 0
Neighs:              0 ave           0 max           0 min
Histogram: 1 0 0 0 0 0 0 0 0 0
FullNghs:         3078 ave        3078 max        3078 min
Histogram: 1 0 0 0 0 0 0 0 0 0

Total # of neighbors = 3078
Ave neighs/atom = 32.0625
Ave special neighs/atom = 0
Neighbor list builds = 3744
Dangerous builds = 0

fix npt1 all npt temp 5000 4000 0.1 iso 0 0 1
run 80000
Per MPI rank memory allocation (min/avg/max) = 8.549 | 8.549 | 8.549 Mbytes
   Step          Temp          E_pair         E_mol          TotEng         Press          Volume    
     80000   4925.404      -549.43716      0             -488.9546       14878.249      1378.1596    
     81000   4889.6069     -543.86396      0             -483.82098     -43369.784      1390.2658    
     82000   5139.2721     -551.71232      0             -488.60353     -41238.418      1360.2207    
     83000   5101.9379     -541.82932      0             -479.17898      17252.898      1177.3688    
     84000   4963.7193     -550.30344      0             -489.35039     -25561.274      1447.62      
     85000   4750.6587     -550.36986      0             -492.03313      6106.2373      1344.8627    
     86000   4836.959      -538.68137      0             -479.2849      -42990.528      1344.2437    
     87000   5345.4554     -546.79208      0             -481.15142      14874.132      1379.7974    
     88000   5041.2531     -545.8204       0             -483.91525     -19236.831      1432.7489    
     89000   5468.0372     -555.67728      0             -488.53134     -33155.725      1537.3777    
     90000   4774.9254     -550.49912      0             -491.8644      -29056.709      1441.7274    
     91000   5168.1109     -564.55518      0             -501.09226      18903.894      1362.77      
     92000   4758.7767     -561.38113      0             -502.94471      2600.3554      1359.8398    
     93000   4410.8665     -554.06888      0             -499.9047      -33832.244      1344.0035    
     94000   4758.215      -567.16092      0             -508.73141     -10338.883      1397.868     
     95000   4816.6498     -552.86735      0             -493.72026     -17090.722      1408.1205    
     96000   4770.2476     -561.60251      0             -503.02524     -11254.521      1313.8714    
     97000   4747.4571     -552.52581      0             -494.22839      11686.383      1330.9652    
     98000   4423.8165     -561.7934       0             -507.4702       4066.442       1313.1259    
     99000   4801.9476     -569.51066      0             -510.54412      13758.181      1335.9143    
    100000   4143.489      -566.15114      0             -515.27028     -74633.587      1347.3046    
    101000   5110.5243     -557.01043      0             -494.25466     -42932.493      1363.7131    
    102000   5155.9377     -563.60611      0             -500.29267     -40821.858      1372.971     
    103000   4912.1489     -566.65347      0             -506.33368     -42453.319      1353.8151    
    104000   4257.3222     -566.76378      0             -514.48508      4743.8531      1377.0928    
    105000   4483.6455     -560.08305      0             -505.02516     -5104.2552      1378.2859    
    106000   4218.4075     -571.35451      0             -519.55368     -10347.294      1367.5857    
    107000   4529.8491     -561.42551      0             -505.80026      18235.137      1341.9332    
    108000   4718.7521     -566.81563      0             -508.8707      -36502.074      1431.3461    
    109000   3581.4455     -554.69584      0             -510.71671     -18483.929      1382.8214    
    110000   4781.396      -547.32017      0             -488.606       -24923.349      1560.7936    
    111000   4987.1264     -566.65251      0             -505.41203      34024.796      1495.0038    
    112000   4033.1547     -565.35121      0             -515.82522      31336.729      1459.4821    
    113000   5205.2384     -565.95254      0             -502.0337       16888.605      1468.5659    
    114000   4080.3487     -561.51874      0             -511.41323      8190.4779      1570.9596    
    115000   3936.0885     -543.82818      0             -495.49414     -9231.3859      1581.44      
    116000   4362.0522     -560.46137      0             -506.89662     -22646.659      1588.5497    
    117000   4918.8731     -562.41718      0             -502.01483     -3363.8746      1450.0097    
    118000   3994.7971     -558.74178      0             -509.68681      20847.638      1501.1076    
    119000   4139.0108     -566.88523      0             -516.05936      16448.449      1522.2131    
    120000   4417.6612     -559.30952      0             -505.0619       17362.507      1669.223     
    121000   4294.0718     -563.23057      0             -510.5006       15933.599      1620.8937    
    122000   3934.915      -563.28977      0             -514.97014     -45252.741      1685.4717    
    123000   4874.4287     -561.13055      0             -501.27396      16045.338      1508.8967    
    124000   4220.9897     -563.52223      0             -511.68969      271.46816      1525.4839    
    125000   4414.3385     -572.01607      0             -517.80926     -29531.658      1538.978     
    126000   4597.6861     -580.0081       0             -523.54983     -2641.558       1525.5748    
    127000   4503.4936     -571.80394      0             -516.50233     -37221.852      1463.7044    
    128000   4292.0311     -563.74428      0             -511.03937     -95.893164      1499.6478    
    129000   4621.1517     -564.93007      0             -508.18365     -12017.755      1499.5579    
    130000   5199.0211     -574.96826      0             -511.12577      30443.798      1518.6102    
    131000   4042.4122     -565.73388      0             -516.09422     -1218.0677      1516.7248    
    132000   4156.111      -568.40995      0             -517.3741       24688.559      1479.2723    
    133000   4646.9301     -559.08942      0             -502.02645      45794.944      1433.1217    
    134000   3951.2939     -557.79859      0             -509.27783     -15033.673      1490.162     
    135000   4482.9432     -558.80995      0             -503.76069      10503.287      1617.8029    
    136000   4711.9644     -562.68952      0             -504.82795      15835.789      1578.1309    
    137000   4596.2381     -574.22111      0             -517.78062     -22528.69       1554.9106    
    138000   4590.0167     -566.02314      0             -509.65905      12559.171      1603.7035    
    139000   4000.6942     -574.76029      0             -525.63291      12758.05       1472.7655    
    140000   4740.1395     -568.98247      0             -510.77491     -30218.233      1456.3898    
    141000   3793.4271     -565.13065      0             -518.54845     -19492.039      1530.5319    
    142000   4391.1911     -576.62583      0             -522.70326     -23036.634      1518.2788    
    143000   4185.3888     -565.80297      0             -514.4076       24583.796      1544.9902    
    144000   4326.2492     -573.0612       0             -519.9361      -20156.151      1519.3311    
    145000   4694.7529     -557.13847      0             -499.48825     -11222.489      1499.3481    
    146000   4766.2385     -560.12401      0             -501.59596      6799.5003      1420.9537    
    147000   4311.7705     -571.44437      0             -518.49706      9432.8756      1416.1241    
    148000   3640.9269     -575.66285      0             -530.95331     -18118.926      1494.9961    
    149000   4075.0939     -570.81223      0             -520.77124     -4815.8908      1528.2487    
    150000   4451.8972     -568.58782      0             -513.9198       70474.462      1457.2692    
    151000   4346.115      -570.03153      0             -516.66248     -3467.2309      1472.5227    
    152000   3636.3149     -565.73424      0             -521.08134     -20745.177      1588.2143    
    153000   4416.2083     -571.90477      0             -517.67499     -32268.422      1603.6921    
    154000   4026.9886     -575.53184      0             -526.08158     -37435.004      1410.1316    
    155000   4255.5008     -580.10626      0             -527.84992      42299.486      1461.0476    
    156000   3793.9882     -565.59008      0             -519.00099     -3514.782       1420.7357    
    157000   3785.2587     -569.27779      0             -522.7959       28269.372      1405.0828    
    158000   3866.93       -577.61373      0             -530.12893      31697.018      1485.856     
    159000   3895.2127     -574.79455      0             -526.96245      23887.511      1453.1448    
    160000   4161.1103     -564.74238      0             -513.64514      10336.679      1491.2677    
Loop time of 7.24331 on 1 procs for 80000 steps with 96 atoms

Performance: 954.259 ns/day, 0.025 hours/ns, 11044.668 timesteps/s, 1.060 Matom-step/s
99.4% CPU use with 1 MPI tasks x no OpenMP threads

MPI task timing breakdown:
Section |  min time  |  avg time  |  max time  |%varavg| %total
---------------------------------------------------------------
Pair    | 6.0374     | 6.0374     | 6.0374     |   0.0 | 83.35
Bond    | 0.0036736  | 0.0036736  | 0.0036736  |   0.0 |  0.05
Neigh   | 0.43138    | 0.43138    | 0.43138    |   0.0 |  5.96
Comm    | 0.21552    | 0.21552    | 0.21552    |   0.0 |  2.98
Output  | 0.012746   | 0.012746   | 0.012746   |   0.0 |  0.18
Modify  | 0.49906    | 0.49906    | 0.49906    |   0.0 |  6.89
Other   |            | 0.04353    |            |       |  0.60

Nlocal:             96 ave          96 max          96 min
Histogram: 1 0 0 0 0 0 0 0 0 0
Nghost:            492 ave         492 max         492 min
Histogram: 1 0 0 0 0 0 0 0 0 0
Neighs:              0 ave           0 max           0 min
Histogram: 1 0 0 0 0 0 0 0 0 0
FullNghs:         2770 ave        2770 max        2770 min
Histogram: 1 0 0 0 0 0 0 0 0 0

Total # of neighbors = 2770
Ave neighs/atom = 28.854167
Ave special neighs/atom = 0
Neighbor list builds = 3298
Dangerous builds = 0

fix npt1 all npt temp 4000 4000 0.1 iso 0 0 1
run 80000
Per MPI rank memory allocation (min/avg/max) = 8.549 | 8.549 | 8.549 Mbytes
   Step          Temp          E_pair         E_mol          TotEng         Press          Volume    
    160000   4161.1103     -564.74238      0             -513.64514      10336.679      1491.2677    
    161000   4393.4667     -575.71638      0             -521.76587      16098.086      1498.7896    
    162000   3666.9923     -574.38835      0             -529.35873      55264.381      1417.628     
    163000   4367.7911     -574.69747      0             -521.06224      19045.545      1402.3522    
    164000   3395.7083     -580.02142      0             -538.3231      -26994.641      1462.5787    
    165000   3864.7233     -569.2423       0             -521.7846      -30596.912      1540.7338    
    166000   3945.7233     -571.20959      0             -522.75724     -14220.812      1524.6519    
    167000   4191.7182     -572.33568      0             -520.86258     -198.48751      1540.2406    
    168000   3656.9094     -576.31741      0             -531.41161     -28715.087      1549.935     
    169000   4362.3131     -576.43316      0             -522.8652      -25766.744      1467.4947    
    170000   3997.2151     -571.87009      0             -522.78543     -41125.014      1482.4335    
    171000   3711.5904     -582.41904      0             -536.84177      6490.3478      1511.9047    
    172000   3779.4565     -574.43712      0             -528.02648     -60499.048      1536.6218    
    173000   4440.6438     -565.20538      0             -510.67554      6944.8436      1437.458     
    174000   4358.9989     -569.98732      0             -516.46006     -3506.9005      1554.6307    
    175000   4036.3907     -568.73092      0             -519.16519     -40079.465      1538.3487    
    176000   3760.9821     -574.68405      0             -528.50026     -27164.963      1565.8812    
    177000   3895.5373     -566.94688      0             -519.1108      -41621.979      1593.9685    
    178000   3832.7644     -579.63558      0             -532.57033      1426.2335      1558.8488    
    179000   3570.2203     -577.10425      0             -533.26297      3576.8644      1533.8764    
    180000   4115.4819     -573.74496      0             -523.20802      20994.613      1548.8422    
    181000   3725.4052     -580.34251      0             -534.5956      -36040.047      1554.6497    
    182000   3575.1899     -570.78086      0             -526.87855     -49344.902      1569.6413    
    183000   4479.2108     -568.55743      0             -513.554       -7624.293       1590.9233    
    184000   4146.6923     -572.19881      0             -521.27862     -51316.351      1545.0748    
    185000   3513.1006     -578.8272       0             -535.68733     -23084.07       1624.6825    
    186000   4256.1031     -573.64546      0             -521.38173      9962.8105      1566.1894    
    187000   4440.5239     -571.31312      0             -516.78475     -21375.59       1569.6485    
    188000   3940.4066     -577.98243      0             -529.59537      20709.693      1481.4053    
    189000   3926.8055     -581.02304      0             -532.803       -8109.258       1452.669     
    190000   4030.5791     -578.32677      0             -528.83242     -13001.071      1524.6634    
    191000   3856.1935     -576.24921      0             -528.89626      19092.338      1495.5418    
    192000   3629.3649     -574.85556      0             -530.28799      53597.901      1486.4308    
    193000   4238.1498     -582.12079      0             -530.07753      6755.4396      1537.1829    
    194000   4017.9212     -571.55         0             -522.21107     -228.92387      1554.9021    
    195000   4003.2228     -576.82603      0             -527.6676      -27105.957      1588.2816    
    196000   4017.8291     -565.62032      0             -516.28253      20921.296      1386.9839    
    197000   3520.9538     -570.37328      0             -527.13698     -17089.262      1465.8412    
    198000   3554.0503     -570.71657      0             -527.07385      11900.806      1479.4215    
    199000   4032.0105     -571.72235      0             -522.21042     -31293.56       1538.1073    
    200000   3605.3907     -574.36344      0             -530.09027     -3627.2471      1537.2541    
    201000   4230.6483     -577.08123      0             -525.13008     -25664.003      1569.4746    
    202000   4843.0081     -573.17719      0             -513.70644      24240.562      1629.0973    
    203000   3928.1255     -575.79415      0             -527.55789     -7211.091       1609.5772    
    204000   4083.2702     -566.56185      0             -516.42046     -32986.623      1615.5747    
    205000   4185.3074     -570.66042      0             -519.26604      4363.8946      1655.8516    
    206000   3647.7763     -572.62473      0             -527.83109     -11307.355      1630.4155    
    207000   3810.3249     -568.4059       0             -521.6162      -42013.366      1636.1659    
    208000   4878.7313     -576.57755      0             -516.66813      2596.801       1676.1781    
    209000   3754.0063     -574.81498      0             -528.71686     -17946.495      1749.7872    
    210000   3813.8984     -570.23203      0             -523.39845      16951.381      1649.0324    
    211000   4429.0846     -566.49333      0             -512.10544      12566.599      1607.2884    
    212000   4013.4394     -571.52598      0             -522.24209     -18897.325      1636.2178    
    213000   4458.2884     -568.92778      0             -514.18128      3524.8766      1759.0964    
    214000   3745.6787     -570.34998      0             -524.35412      784.05265      1774.2122    
    215000   4354.1681     -563.83371      0             -510.36577     -5448.0755      1671.1171    
    216000   3561.99       -565.4357       0             -521.69548     -13518.066      1791.1597    
    217000   3879.1366     -573.3247       0             -525.69001      44267.918      1563.01      
    218000   3395.6098     -578.53379      0             -536.83667     -14398.911      1540.2839    
    219000   4072.8184     -571.29132      0             -521.27827     -25728.957      1664.5425    
    220000   3996.589      -579.25074      0             -530.17377      1276.6151      1613.6562    
    221000   3949.7652     -574.91628      0             -526.41429      30481.17       1562.3639    
    222000   4171.3916     -569.62897      0             -518.40547      7376.8044      1584.7073    
    223000   3874.523      -571.4946       0             -523.91656      6262.1143      1684.0284    
    224000   3976.4157     -570.58251      0             -521.75326     -8763.8974      1746.6676    
    225000   3390.1776     -573.34786      0             -531.71745     -7686.4302      1726.8187    
    226000   3531.3632     -565.69981      0             -522.33568      5278.363       1672.2896    
    227000   3567.6841     -572.8725       0             -529.06236      49224.647      1732.1729    
    228000   4122.0901     -581.27798      0             -530.65989      6869.6783      1765.7734    
    229000   4017.6933     -573.70917      0             -524.37304      15542.386      1800.5097    
    230000   4214.8269     -572.37046      0             -520.61359      6433.8467      1799.1007    
    231000   4225.7609     -579.70666      0             -527.81553      38262.572      1774.2748    
    232000   3789.9316     -569.00292      0             -522.46365      10666.977      1715.0913    
    233000   3963.379      -572.64071      0             -523.97155      33392.42       1716.4502    
    234000   4265.6285     -573.35509      0             -520.97439      13414.149      1803.5259    
    235000   4632.7885     -571.99368      0             -515.10437     -17766.615      1809.344     
    236000   3528.963      -571.21834      0             -527.88368      8963.5949      1836.6865    
    237000   4489.3093     -573.4749       0             -518.34747     -10721.782      1757.6314    
    238000   3798.3953     -563.33537      0             -516.69217     -22490.893      1727.4308    
    239000   3821.9796     -572.36638      0             -525.43357      31906.901      1678.251     
    240000   4128.8235     -571.6605       0             -520.95973      51502.06       1606.594     
Loop time of 6.64308 on 1 procs for 80000 steps with 96 atoms

Performance: 1040.481 ns/day, 0.023 hours/ns, 12042.602 timesteps/s, 1.156 Matom-step/s
99.3% CPU use with 1 MPI tasks x no OpenMP threads

MPI task timing breakdown:
Section |  min time  |  avg time  |  max time  |%varavg| %total
---------------------------------------------------------------
Pair    | 5.516      | 5.516      | 5.516      |   0.0 | 83.03
Bond    | 0.0034584  | 0.0034584  | 0.0034584  |   0.0 |  0.05
Neigh   | 0.3848     | 0.3848     | 0.3848     |   0.0 |  5.79
Comm    | 0.20589    | 0.20589    | 0.20589    |   0.0 |  3.10
Output  | 0.012154   | 0.012154   | 0.012154   |   0.0 |  0.18
Modify  | 0.4801     | 0.4801     | 0.4801     |   0.0 |  7.23
Other   |            | 0.0407     |            |       |  0.61

Nlocal:             96 ave          96 max          96 min
Histogram: 1 0 0 0 0 0 0 0 0 0
Nghost:            493 ave         493 max         493 min
Histogram: 1 0 0 0 0 0 0 0 0 0
Neighs:              0 ave           0 max           0 min
Histogram: 1 0 0 0 0 0 0 0 0 0
FullNghs:         2548 ave        2548 max        2548 min
Histogram: 1 0 0 0 0 0 0 0 0 0

Total # of neighbors = 2548
Ave neighs/atom = 26.541667
Ave special neighs/atom = 0
Neighbor list builds = 3069
Dangerous builds = 0

fix npt1 all npt temp 4000 3000 0.1 iso 0 0  1
run 80000
Per MPI rank memory allocation (min/avg/max) = 8.549 | 8.549 | 8.549 Mbytes
   Step          Temp          E_pair         E_mol          TotEng         Press          Volume    
    240000   4128.8235     -571.6605       0             -520.95973      51502.06       1606.594     
    241000   4097.0408     -570.53009      0             -520.2196      -3656.5791      1686.9505    
    242000   3345.2431     -576.81212      0             -535.73349      16220.867      1625.1869    
    243000   3851.9545     -564.63379      0             -517.33289     -26258.701      1756.0748    
    244000   3564.1119     -569.07918      0             -525.31291     -16973.662      1658.8744    
    245000   3600.4159     -570.53067      0             -526.31859     -24393.452      1718.1801    
    246000   4641.6853     -570.14986      0             -513.15129     -2997.1122      1804.7472    
    247000   3954.4349     -577.1425       0             -528.58317     -4457.179       1839.2159    
    248000   4454.815      -565.62179      0             -510.91794      38748.565      1768.7823    
    249000   3923.617      -577.52639      0             -529.3455       18612.434      1758.8702    
    250000   3899.1978     -567.44773      0             -519.5667       9902.4265      1796.3802    
    251000   3840.2004     -579.38925      0             -532.23269      4418.3039      1908.0042    
    252000   4403.6257     -578.82231      0             -524.74704     -22560.297      1872.7258    
    253000   3683.3435     -573.94951      0             -528.71911     -2524.0083      1809.3441    
    254000   3455.9865     -575.08987      0             -532.65135     -19204.891      1773.8582    
    255000   4317.8335     -575.34379      0             -522.32204      32138.716      1646.2083    
    256000   3713.5901     -578.34041      0             -532.73859      18539.225      1684.8724    
    257000   3886.5127     -581.92305      0             -534.19779     -19125.08       1726.1391    
    258000   3797.175      -577.47383      0             -530.84561      17302.704      1824.3237    
    259000   4078.2106     -588.29871      0             -538.21945      431.16505      1818.9946    
    260000   4238.995      -579.08563      0             -527.03198      390.83566      1835.534     
    261000   3657.6476     -583.56918      0             -538.65432     -10689.827      1876.1471    
    262000   4146.0954     -578.17423      0             -527.26137     -34556.811      1825.6002    
    263000   3606.0465     -571.08812      0             -526.8069       5294.3299      1805.9195    
    264000   3367.4725     -580.29064      0             -538.93904      7791.7167      1738.482     
    265000   3733.7973     -570.5377       0             -524.68774      43346.247      1692.6731    
    266000   4058.6486     -583.05176      0             -533.21272     -12519.162      1798.0591    
    267000   3559.6794     -575.31638      0             -531.60453     -46217.339      1803.9683    
    268000   3418.5441     -577.05753      0             -535.07878     -12970.517      1756.0681    
    269000   3827.7577     -577.17005      0             -530.16629      21409.486      1740.4338    
    270000   3568.4427     -577.83879      0             -534.01934      97.532955      1778.0259    
    271000   3698.3313     -581.59082      0             -536.17637     -4387.6732      1799.3349    
    272000   3795.4591     -576.30241      0             -529.69526     -7192.2444      1851.8442    
    273000   3426.5204     -573.49014      0             -531.41345     -38752.762      1899.574     
    274000   3700.2193     -581.80995      0             -536.37231     -719.22587      1854.6795    
    275000   3582.4986     -580.74829      0             -536.75623     -2867.4619      1778.7019    
    276000   3777.2408     -586.68508      0             -540.30164      15295.666      1740.1293    
    277000   3231.1852     -586.86234      0             -547.18431     -3932.5915      1756.283     
    278000   3572.3574     -584.55922      0             -540.69169      29270.406      1740.335     
    279000   3478.9951     -584.80965      0             -542.08859     -21909.315      1762.7369    
    280000   3751.5758     -590.10079      0             -544.03251      6418.6389      1719.0756    
    281000   3692.0781     -584.77769      0             -539.44003      5132.4233      1757.6487    
    282000   3185.6102     -583.85727      0             -544.73889     -6486.5691      1789.2948    
    283000   3241.0386     -578.79579      0             -538.99676      1049.5444      1733.9761    
    284000   3190.2645     -585.43581      0             -546.26028      3178.7104      1756.7915    
    285000   3243.5253     -585.84539      0             -546.01582     -1653.9837      1849.4484    
    286000   3846.9414     -581.43811      0             -534.19877      23476.915      1843.9851    
    287000   3470.638      -590.67038      0             -548.05194     -5944.3036      1831.504     
    288000   3294.7138     -579.5871       0             -539.12896     -7904.959       1871.097     
    289000   3717.545      -585.51889      0             -539.8685      -17192.647      1885.5856    
    290000   2932.6515     -579.90359      0             -543.89147      7274.8345      1883.9575    
    291000   3461.0075     -589.29891      0             -546.79873      2285.5166      1838.9533    
    292000   3848.0398     -583.41397      0             -536.16114     -22976.815      1894.5744    
    293000   3445.0186     -591.0568       0             -548.75296     -14734.664      1860.3984    
    294000   3198.588      -578.69158      0             -539.41384     -12020.398      1839.9116    
    295000   3381.0928     -584.72504      0             -543.20619      40880.846      1799.5635    
    296000   3396.2047     -589.18295      0             -547.47853      12081.306      1790.0413    
    297000   3459.2849     -581.45021      0             -538.97119      2560.2837      1764.398     
    298000   2816.1361     -585.86344      0             -551.28209      634.52281      1778.2297    
    299000   3372.0926     -580.27371      0             -538.86538      16956.43       1792.26      
    300000   2845.2605     -584.3037       0             -549.36472     -15279.779      1838.1164    
    301000   3886.883      -587.57868      0             -539.84887     -7606.5         1805.665     
    302000   3665.3263     -589.71298      0             -544.70382      5552.4064      1810.3304    
    303000   3102.5343     -588.21987      0             -550.12164     -25636.466      1874.5319    
    304000   3174.1818     -588.02425      0             -549.04621     -11362.292      1850.4551    
    305000   3261.5874     -591.08158      0             -551.03022      2881.7509      1859.578     
    306000   2995.2916     -582.31542      0             -545.53409     -869.11016      1842.689     
    307000   2896.588      -586.88831      0             -551.31904      13978.229      1813.2949    
    308000   3349.6936     -585.18905      0             -544.05577      5563.2791      1831.4013    
    309000   2824.4798     -583.76406      0             -549.08026     -19037.472      1796.1132    
    310000   2970.5187     -591.12356      0             -554.64644      26082.078      1780.5343    
    311000   3408.568      -581.44178      0             -539.58554      6503.409       1772.9977    
    312000   2964.2465     -588.64222      0             -552.24213     -5470.273       1840.3272    
    313000   2685.7278     -589.24679      0             -556.26682     -11205.857      1812.4863    
    314000   2912.4687     -586.78799      0             -551.02371     -14607.27       1835.2938    
    315000   3107.299      -595.80079      0             -557.64404     -6673.5663      1830.5875    
    316000   2814.8336     -588.47925      0             -553.9139      -1516.8064      1822.6182    
    317000   2849.5618     -582.27812      0             -547.28632      278.14708      1860.3476    
    318000   3267.3869     -594.08423      0             -553.96166      5487.7243      1882.7829    
    319000   2920.6129     -595.69777      0             -559.83348     -12828.625      1891.4101    
    320000   2827.2229     -580.82562      0             -546.10814     -16964.341      1976.6464    
Loop time of 6.41113 on 1 procs for 80000 steps with 96 atoms

Performance: 1078.125 ns/day, 0.022 hours/ns, 12478.293 timesteps/s, 1.198 Matom-step/s
99.1% CPU use with 1 MPI tasks x no OpenMP threads

MPI task timing breakdown:
Section |  min time  |  avg time  |  max time  |%varavg| %total
---------------------------------------------------------------
Pair    | 5.3385     | 5.3385     | 5.3385     |   0.0 | 83.27
Bond    | 0.0034905  | 0.0034905  | 0.0034905  |   0.0 |  0.05
Neigh   | 0.33523    | 0.33523    | 0.33523    |   0.0 |  5.23
Comm    | 0.19988    | 0.19988    | 0.19988    |   0.0 |  3.12
Output  | 0.012436   | 0.012436   | 0.012436   |   0.0 |  0.19
Modify  | 0.48133    | 0.48133    | 0.48133    |   0.0 |  7.51
Other   |            | 0.04029    |            |       |  0.63

Nlocal:             96 ave          96 max          96 min
Histogram: 1 0 0 0 0 0 0 0 0 0
Nghost:            456 ave         456 max         456 min
Histogram: 1 0 0 0 0 0 0 0 0 0
Neighs:              0 ave           0 max           0 min
Histogram: 1 0 0 0 0 0 0 0 0 0
FullNghs:         2304 ave        2304 max        2304 min
Histogram: 1 0 0 0 0 0 0 0 0 0

Total # of neighbors = 2304
Ave neighs/atom = 24
Ave special neighs/atom = 0
Neighbor list builds = 2835
Dangerous builds = 0

fix npt1 all npt temp 3000 3000 0.1 iso 0 0 1
run 80000
Per MPI rank memory allocation (min/avg/max) = 8.549 | 8.549 | 8.549 Mbytes
   Step          Temp          E_pair         E_mol          TotEng         Press          Volume    
    320000   2827.2229     -580.82562      0             -546.10814     -16964.341      1976.6464    
    321000   3148.7956     -592.05096      0             -553.38465      9333.1321      1853.2658    
    322000   2887.8182     -594.15257      0             -558.69099      2059.7001      1833.1287    
    323000   2943.8323     -591.78655      0             -555.63713      13923.961      1823.8768    
    324000   2943.0989     -593.67119      0             -557.53077     -26177.047      1805.0188    
    325000   3128.4292     -594.41084      0             -555.99462     -15331.002      1766.283     
    326000   3071.3059     -593.33332      0             -555.61856      39059.826      1722.0409    
    327000   3087.1776     -588.67961      0             -550.76995      9336.462       1722.085     
    328000   3251.2142     -593.17803      0             -553.25405     -8396.7041      1773.1787    
    329000   3383.1606     -591.41631      0             -549.87207      33911.84       1754.2668    
    330000   2610.3618     -590.8389       0             -558.7844       6468.5946      1813.8396    
    331000   2821.0813     -588.50173      0             -553.85966      25774.656      1791.4739    
    332000   2989.7161     -596.46257      0             -559.74971     -16269.629      1793.2327    
    333000   2763.4194     -591.47748      0             -557.54349     -24417.375      1801.3085    
    334000   3124.0836     -589.53678      0             -551.17393      14714.538      1781.9363    
    335000   2885.4481     -593.08682      0             -557.65434      28095.888      1761.8549    
    336000   3064.4281     -588.82435      0             -551.19405      12223.106      1671.8316    
    337000   2790.227      -591.99174      0             -557.72855      10148.485      1760.3879    
    338000   2921.0514     -587.95937      0             -552.0897       1989.5578      1784.5708    
    339000   2806.4146     -588.4842       0             -554.02224      13135.168      1796.3375    
    340000   2891.8509     -592.44876      0             -556.93766     -17964.642      1822.2987    
    341000   3468.8964     -589.69855      0             -547.10149      11444.344      1822.0794    
    342000   3128.707      -590.41702      0             -551.99739      13465.19       1849.914     
    343000   2942.914      -592.10383      0             -555.96569     -37030.137      1898.8558    
    344000   2988.403      -591.53537      0             -554.83864     -16587.61       1858.973     
    345000   3238.8992     -585.3637       0             -545.59095      8749.0596      1849.8889    
    346000   2706.669      -588.36758      0             -555.13046     -6951.1923      1849.7737    
    347000   3284.6156     -584.76002      0             -544.42588     -19659.915      1845.1624    
    348000   3309.367      -590.56719      0             -549.92911     -13021.262      1861.4294    
    349000   2634.6963     -590.51058      0             -558.15726     -22332.919      1926.3513    
    350000   3470.8335     -582.67142      0             -540.05057     -20577.785      1917.8316    
    351000   3040.2718     -593.58022      0             -556.24655     -11671.876      1830.4455    
    352000   3246.6423     -584.56825      0             -544.70041     -23379.69       1844.129     
    353000   2856.6417     -585.57133      0             -550.49259      14310.358      1840.2275    
    354000   3180.9053     -589.209        0             -550.14839      25031.371      1775.704     
    355000   2799.0419     -587.01266      0             -552.64123     -2121.8017      1767.4933    
    356000   2445.6187     -588.59908      0             -558.56759     -23461.314      1859.4816    
    357000   2991.6359     -582.44852      0             -545.71209     -4750.2482      1856.0597    
    358000   2955.0557     -585.88705      0             -549.59981      9120.9792      1837.4988    
    359000   2955.3303     -590.38627      0             -554.09566      9186.8529      1870.6467    
    360000   3062.8957     -591.39353      0             -553.78205      9846.1188      1808.6746    
    361000   2898.4342     -584.31047      0             -548.71852     -1791.3838      1804.0938    
    362000   3204.1884     -588.92251      0             -549.57599      21954.709      1765.5993    
    363000   2963.0194     -590.23229      0             -553.84726     -12769.927      1827.1155    
    364000   3139.9601     -584.14912      0             -545.5913      -21411.102      1757.9377    
    365000   2833.7544     -589.74821      0             -554.95052     -14756.798      1774.8205    
    366000   3283.938      -585.95404      0             -545.62822      22251.547      1788.1666    
    367000   3379.6772     -589.639        0             -548.13753      12209.494      1808.4667    
    368000   2942.2471     -596.40182      0             -560.27186     -16110.141      1865.28      
    369000   3345.1258     -588.11625      0             -547.03906     -6610.5887      1826.3016    
    370000   3468.8467     -587.40018      0             -544.80373     -5852.9947      1857.0115    
    371000   3072.5215     -587.78225      0             -550.05257     -22917.221      1863.508     
    372000   3278.3097     -592.43881      0             -552.1821      -13674.946      1877.3095    
    373000   3437.2294     -591.58896      0             -549.38076      6472.2197      1779.3913    
    374000   2623.964      -589.09474      0             -556.87322      2548.0079      1787.474     
    375000   2853.0444     -583.51117      0             -548.4766       663.65521      1704.3271    
    376000   2686.1157     -592.41898      0             -559.43425     -12821.944      1696.1797    
    377000   2947.0312     -594.24022      0             -558.05152      19362.964      1735.2851    
    378000   2950.0808     -591.76294      0             -555.5368      -9917.8647      1751.8643    
    379000   3453.4998     -587.36364      0             -544.95565      57182.574      1658.6261    
    380000   2954.4383     -594.84912      0             -558.56947      38237.126      1691.4066    
    381000   3178.7835     -586.68087      0             -547.64632     -8961.9195      1723.5171    
    382000   3292.2311     -593.5999       0             -553.17224      13546.864      1743.398     
    383000   2987.9052     -593.5431       0             -556.85248     -2965.8689      1737.0838    
    384000   2885.2535     -583.91658      0             -548.48649     -1036.7654      1764.8169    
    385000   2957.7336     -593.59502      0             -557.27489      45087.833      1701.9996    
    386000   3089.0874     -596.8691       0             -558.93599      14849.609      1746.8701    
    387000   3167.2767     -592.94867      0             -554.05542      13337.763      1699.2505    
    388000   2941.516      -592.49375      0             -556.37277     -4748.3831      1826.9331    
    389000   2959.5323     -588.39252      0             -552.05031     -27018.044      1853.8494    
    390000   3032.0534     -585.42308      0             -548.19033     -6501.667       1838.6518    
    391000   3146.4445     -588.74354      0             -550.1061      -15846.273      1857.9327    
    392000   3382.6677     -588.44         0             -546.90181     -9005.605       1876.892     
    393000   3375.0309     -588.7154       0             -547.27098     -16447.367      1831.5842    
    394000   3227.7234     -594.43346      0             -554.79794      787.34161      1802.6245    
    395000   2879.6477     -587.23864      0             -551.87739     -18095.368      1781.0133    
    396000   3112.0524     -582.56842      0             -544.35331     -3088.8349      1787.3023    
    397000   2771.0487     -590.32078      0             -556.2931      -875.87126      1806.9626    
    398000   3078.4049     -588.43315      0             -550.63122      13157.929      1803.9336    
    399000   2476.9303     -588.20921      0             -557.79321     -21798.992      1865.4747    
    400000   2935.0742     -590.379        0             -554.33713     -15013.777      1895.9912    
Loop time of 6.18545 on 1 procs for 80000 steps with 96 atoms

Performance: 1117.461 ns/day, 0.021 hours/ns, 12933.582 timesteps/s, 1.242 Matom-step/s
99.1% CPU use with 1 MPI tasks x no OpenMP threads

MPI task timing breakdown:
Section |  min time  |  avg time  |  max time  |%varavg| %total
---------------------------------------------------------------
Pair    | 5.1766     | 5.1766     | 5.1766     |   0.0 | 83.69
Bond    | 0.0032204  | 0.0032204  | 0.0032204  |   0.0 |  0.05
Neigh   | 0.29582    | 0.29582    | 0.29582    |   0.0 |  4.78
Comm    | 0.19443    | 0.19443    | 0.19443    |   0.0 |  3.14
Output  | 0.013188   | 0.013188   | 0.013188   |   0.0 |  0.21
Modify  | 0.4637     | 0.4637     | 0.4637     |   0.0 |  7.50
Other   |            | 0.0385     |            |       |  0.62

Nlocal:             96 ave          96 max          96 min
Histogram: 1 0 0 0 0 0 0 0 0 0
Nghost:            454 ave         454 max         454 min
Histogram: 1 0 0 0 0 0 0 0 0 0
Neighs:              0 ave           0 max           0 min
Histogram: 1 0 0 0 0 0 0 0 0 0
FullNghs:         2364 ave        2364 max        2364 min
Histogram: 1 0 0 0 0 0 0 0 0 0

Total # of neighbors = 2364
Ave neighs/atom = 24.625
Ave special neighs/atom = 0
Neighbor list builds = 2540
Dangerous builds = 0

fix npt1 all npt temp 3000 2000 0.1 iso 0 0 1
run 80000
Per MPI rank memory allocation (min/avg/max) = 8.549 | 8.549 | 8.549 Mbytes
   Step          Temp          E_pair         E_mol          TotEng         Press          Volume    
    400000   2935.0742     -590.379        0             -554.33713     -15013.777      1895.9912    
    401000   2696.6715     -592.19382      0             -559.07947     -23431.923      1848.865     
    402000   3251.2233     -589.81435      0             -549.89026      15613.366      1841.7704    
    403000   2412.274      -587.66971      0             -558.04767     -56881.98       1856.4305    
    404000   3310.784      -588.89055      0             -548.23507      3989.081       1805.8841    
    405000   2656.4425     -584.28786      0             -551.66751     -34049.428      1886.9964    
    406000   2881.3105     -592.62712      0             -557.24545      27876.936      1811.0896    
    407000   2948.8838     -593.56266      0             -557.35121      8452.7219      1807.9565    
    408000   2688.0784     -590.59111      0             -557.58227     -1580.3867      1826.4836    
    409000   2924.1111     -587.19768      0             -551.29043     -3707.6736      1842.6914    
    410000   2737.5962     -595.83112      0             -562.21422      9566.5845      1734.8515    
    411000   3045.7299     -589.53035      0             -552.12966      10255.058      1720.5129    
    412000   3115.6947     -597.13015      0             -558.87031      3428.7799      1735.0872    
    413000   3197.9542     -591.48686      0             -552.2169      -22044.106      1748.0627    
    414000   2715.8223     -596.24967      0             -562.90015      29231.513      1718.493     
    415000   2293.8913     -593.85232      0             -565.68399      10761.336      1706.3515    
    416000   2972.0483     -594.16232      0             -557.66642      17997.743      1713.0978    
    417000   3028.8033     -591.61963      0             -554.42679      17687.58       1708.8976    
    418000   2926.2581     -590.53485      0             -554.60124     -15204.4        1716.6674    
    419000   2708.2999     -592.97615      0             -559.719        14371.522      1751.999     
    420000   3220.9313     -591.02867      0             -551.47656      33501.033      1724.1339    
    421000   2843.689      -598.66091      0             -563.74123      26490.185      1685.9203    
    422000   2559.1189     -592.75081      0             -561.32556      13945.098      1663.7722    
    423000   2945.7073     -591.80879      0             -555.63634     -441.34767      1654.3005    
    424000   2548.1006     -596.67586      0             -565.38591     -130.3606       1778.7931    
    425000   2388.4892     -588.62368      0             -559.29372     -10015.269      1764.8459    
    426000   2835.616      -598.51547      0             -563.69491     -13680.941      1774.6848    
    427000   2306.1238     -595.15036      0             -566.83182     -1565.2051      1779.4602    
    428000   2453.4762     -592.09241      0             -561.96443      8665.6106      1776.6249    
    429000   2763.2422     -594.86231      0             -560.93048      10663.745      1724.5466    
    430000   2567.7233     -594.06949      0             -562.53859      15379.736      1746.8555    
    431000   2340.3487     -598.78666      0             -570.04785     -3594.4318      1746.293     
    432000   2601.7695     -593.55413      0             -561.60515      12054.011      1733.1273    
    433000   2497.1924     -595.73557      0             -565.07077      26866.69       1716.0776    
    434000   2416.3635     -600.00279      0             -570.33054      4864.9111      1699.8677    
    435000   2661.0042     -593.50225      0             -560.82588      10866.498      1735.64      
    436000   2500.8963     -591.40048      0             -560.69019     -20029.445      1706.8149    
    437000   2018.8193     -597.57266      0             -572.78214      9714.2892      1734.1839    
    438000   2793.5173     -593.80526      0             -559.50167      2622.98        1733.6691    
    439000   2167.5491     -595.3297       0             -568.71282      20614.013      1729.955     
    440000   2793.997      -594.72652      0             -560.41703      22248.493      1720.4488    
    441000   2606.76       -599.62205      0             -567.61178      5209.6237      1743.1269    
    442000   2520.1679     -595.81231      0             -564.86537      7484.3799      1764.4999    
    443000   2255.8492     -596.99633      0             -569.29515     -8954.198       1785.466     
    444000   2592.2102     -594.32869      0             -562.49709      14258.786      1821.2388    
    445000   2182.2057     -599.68398      0             -572.88712      7139.0227      1786.4518    
    446000   2585.0144     -593.86743      0             -562.12419      46719.19       1783.2074    
    447000   2165.2239     -594.94267      0             -568.35434      17417.951      1722.86      
    448000   2205.5215     -598.6043       0             -571.52113      10537.039      1724.358     
    449000   2309.8216     -597.87418      0             -569.51024      20231.788      1723.5662    
    450000   2976.9411     -593.76144      0             -557.20545      636.39276      1739.4477    
    451000   2220.9546     -596.42736      0             -569.15468     -7415.7159      1749.9208    
    452000   2426.0805     -589.11843      0             -559.32686     -10264.859      1770.8688    
    453000   2479.4881     -599.67862      0             -569.23122      13172.497      1778.1349    
    454000   2664.6666     -593.61857      0             -560.89722     -4053.4017      1785.1208    
    455000   2287.4496     -596.5959       0             -568.50668     -2413.1707      1788.9037    
    456000   2229.3359     -596.07048      0             -568.69488      6224.0097      1819.656     
    457000   2470.8747     -592.98575      0             -562.64412     -2036.5664      1856.6746    
    458000   2339.6419     -599.90763      0             -571.17749     -8960.3478      1837.8677    
    459000   2228.9122     -603.94183      0             -576.57143     -8610.2087      1833.0355    
    460000   2472.9841     -599.49072      0             -569.12318      3312.6521      1773.8878    
    461000   2161.2218     -601.34726      0             -574.80808     -4989.8457      1785.2766    
    462000   2084.9898     -596.42552      0             -570.82244     -25373.619      1818.5041    
    463000   1938.3306     -599.64139      0             -575.83924     -25676.079      1808.5355    
    464000   2423.0306     -599.93739      0             -570.18327      2184.9067      1801.8967    
    465000   2205.6712     -602.71719      0             -575.63218     -10802.645      1788.476     
    466000   2367.499      -599.30657      0             -570.23436     -301.52366      1746.1181    
    467000   2232.9637     -602.19889      0             -574.77873     -358.98947      1763.9546    
    468000   2353.0303     -599.62397      0             -570.72943      19050.563      1734.2999    
    469000   2154.2989     -603.8625       0             -577.40832      17779.986      1753.6307    
    470000   2031.0421     -599.45083      0             -574.51022      5544.6427      1781.88      
    471000   2267.1099     -600.30228      0             -572.46282      4591.5549      1794.2958    
    472000   2375.3948     -596.49631      0             -567.32714      8043.9072      1802.9765    
    473000   2139.0535     -599.06533      0             -572.79837     -25507.061      1854.0464    
    474000   2198.2642     -597.03163      0             -570.03757     -16538.814      1859.2675    
    475000   1990.0898     -600.64282      0             -576.20509     -9725.7381      1861.131     
    476000   2095.4645     -595.55242      0             -569.82071      14582.275      1831.4666    
    477000   1905.5614     -599.8286       0             -576.42885     -7397.2659      1854.0483    
    478000   2228.9621     -596.33532      0             -568.9643       9289.0305      1776.5454    
    479000   1985.0681     -602.89374      0             -578.51767      14077.289      1799.7669    
    480000   2276.5009     -600.39709      0             -572.44231     -6175.713       1853.6352    
Loop time of 6.11751 on 1 procs for 80000 steps with 96 atoms

Performance: 1129.871 ns/day, 0.021 hours/ns, 13077.210 timesteps/s, 1.255 Matom-step/s
98.9% CPU use with 1 MPI tasks x no OpenMP threads

MPI task timing breakdown:
Section |  min time  |  avg time  |  max time  |%varavg| %total
---------------------------------------------------------------
Pair    | 5.1477     | 5.1477     | 5.1477     |   0.0 | 84.15
Bond    | 0.0032845  | 0.0032845  | 0.0032845  |   0.0 |  0.05
Neigh   | 0.25969    | 0.25969    | 0.25969    |   0.0 |  4.25
Comm    | 0.19173    | 0.19173    | 0.19173    |   0.0 |  3.13
Output  | 0.01226    | 0.01226    | 0.01226    |   0.0 |  0.20
Modify  | 0.46446    | 0.46446    | 0.46446    |   0.0 |  7.59
Other   |            | 0.03836    |            |       |  0.63

Nlocal:             96 ave          96 max          96 min
Histogram: 1 0 0 0 0 0 0 0 0 0
Nghost:            466 ave         466 max         466 min
Histogram: 1 0 0 0 0 0 0 0 0 0
Neighs:              0 ave           0 max           0 min
Histogram: 1 0 0 0 0 0 0 0 0 0
FullNghs:         2352 ave        2352 max        2352 min
Histogram: 1 0 0 0 0 0 0 0 0 0

Total # of neighbors = 2352
Ave neighs/atom = 24.5
Ave special neighs/atom = 0
Neighbor list builds = 2214
Dangerous builds = 0

fix npt1 all npt temp 2000 2000 0.1 iso 0 0 1
run 80000
Per MPI rank memory allocation (min/avg/max) = 8.549 | 8.549 | 8.549 Mbytes
   Step          Temp          E_pair         E_mol          TotEng         Press          Volume    
    480000   2276.5009     -600.39709      0             -572.44231     -6175.713       1853.6352    
    481000   1991.4996     -601.22922      0             -576.77417      7664.4971      1824.0127    
    482000   1922.582      -595.34638      0             -571.73762      6852.8301      1848.4595    
    483000   2123.6192     -603.95319      0             -577.87576     -5071.0296      1820.1474    
    484000   1894.8236     -600.39705      0             -577.12916     -19909.013      1850.7972    
    485000   2297.7467     -599.64859      0             -571.43292      14475.109      1780.8601    
    486000   2050.6388     -601.01967      0             -575.83842      2959.2191      1762.7828    
    487000   2110.5506     -601.4521       0             -575.53514      4918.0722      1773.3355    
    488000   2174.686      -599.77589      0             -573.07137     -3797.5808      1822.4046    
    489000   1888.0995     -601.34182      0             -578.15649     -16988.169      1821.8712    
    490000   2066.7827     -600.55544      0             -575.17594      6227.058       1786.8783    
    491000   1779.6155     -607.76906      0             -585.91589     -17141.814      1817.9004    
    492000   1866.3776     -598.55117      0             -575.63259      88.112558      1783.3136    
    493000   1918.6601     -605.82298      0             -582.26238     -4886.7226      1823.1578    
    494000   2023.7087     -600.10047      0             -575.2499       19407.488      1801.1085    
    495000   1963.3788     -602.95232      0             -578.84259     -2681.8321      1785.8766    
    496000   1915.4802     -599.61         0             -576.08845     -13724.616      1754.8202    
    497000   1905.8304     -602.77455      0             -579.3715      -5422.4243      1833.791     
    498000   1936.5271     -599.21008      0             -575.43008     -6217.3239      1820.1318    
    499000   2016.7562     -601.69679      0             -576.9316      -5162.0473      1820.1283    
    500000   1910.4157     -604.21874      0             -580.75938      8487.8086      1786.842     
    501000   2251.5326     -598.00373      0             -570.35556      23495.956      1792.4839    
    502000   1812.2613     -600.85747      0             -578.60342     -5651.359       1786.5104    
    503000   1900.2849     -600.6067       0             -577.27174     -17725.018      1843.1045    
    504000   2007.3174     -599.64857      0             -574.99929     -26717.484      1875.7616    
    505000   2081.0298     -600.61715      0             -575.0627      -20304.086      1847.746     
    506000   1982.4833     -598.05798      0             -573.71365     -8930.08        1863.6699    
    507000   1925.4795     -602.04259      0             -578.39825     -7795.8369      1814.2227    
    508000   2599.7154     -600.0579       0             -568.13414     -21216.204      1858.9331    
    509000   2001.0833     -602.07742      0             -577.50469      4383.2901      1779.98      
    510000   2392.5821     -599.32333      0             -569.94311     -7159.2793      1812.7888    
    511000   1949.2688     -600.36792      0             -576.43146     -19042.255      1855.5945    
    512000   1906.2979     -601.50672      0             -578.09793      3656.9983      1850.9541    
    513000   2042.9394     -599.14992      0             -574.06321     -10047.194      1838.4976    
    514000   1972.4198     -599.22778      0             -575.00703      17953.41       1750.1663    
    515000   2181.0704     -604.42149      0             -577.63857      15726.29       1744.5473    
    516000   1963.3697     -598.8102       0             -574.70058      18517.043      1772.39      
    517000   1726.2342     -600.95648      0             -579.75882     -11454.78       1781.4066    
    518000   2077.4576     -600.6767       0             -575.16611     -11485.35       1757.2845    
    519000   1973.8152     -599.32571      0             -575.08783      2714.9677      1757.9203    
    520000   1846.9622     -600.97223      0             -578.29206     -4593.3502      1758.5527    
    521000   2025.8399     -594.1666       0             -569.28986      21733.816      1745.3334    
    522000   1685.1882     -598.77234      0             -578.07871     -10452.297      1802.9672    
    523000   2195.9481     -600.429        0             -573.46339     -14235.214      1877.0255    
    524000   1875.3459     -599.51964      0             -576.49092     -33902.229      1843.8204    
    525000   2123.776      -602.44941      0             -576.37005      13103.445      1712.4503    
    526000   2202.6231     -601.03743      0             -573.98985     -21587.786      1757.8632    
    527000   2018.4179     -602.09072      0             -577.30512      15398.505      1765.1549    
    528000   2050.2009     -597.81465      0             -572.63877      1950.8791      1769.1935    
    529000   2300.363      -604.70628      0             -576.45849      7206.6655      1739.6499    
    530000   2157.1396     -601.12664      0             -574.63758      3031.8157      1782.1099    
    531000   2284.3068     -603.97215      0             -575.92152      21022.643      1761.8049    
    532000   2206.5607     -599.39759      0             -572.30166     -2317.0635      1808.9905    
    533000   2062.305      -604.69741      0             -579.37289     -3394.5728      1750.9904    
    534000   2273.1011     -599.34248      0             -571.42945     -9047.6192      1776.7663    
    535000   2224.0211     -604.85924      0             -577.54889      17505.035      1789.0875    
    536000   1898.2898     -600.89241      0             -577.58196     -18308.213      1837.7086    
    537000   2000.3167     -601.67376      0             -577.11044     -1539.7678      1807.6379    
    538000   2076.2927     -604.85536      0             -579.35908      15279.303      1793.1027    
    539000   2037.4099     -602.17642      0             -577.15761      4538.9946      1784.8272    
    540000   1826.2909     -599.18475      0             -576.75843     -11177.941      1843.844     
    541000   2061.7765     -601.62982      0             -576.3118      -6540.0808      1839.3459    
    542000   2186.24       -601.51858      0             -574.67218     -28612.88       1850.8391    
    543000   2090.2307     -598.6549       0             -572.98746     -8331.6603      1817.0325    
    544000   1952.4046     -604.08556      0             -580.11059      13361.823      1758.3481    
    545000   2139.7834     -601.29979      0             -575.02386      2046.2767      1777.536     
    546000   1950.9369     -602.28752      0             -578.33058      4837.9573      1765.7101    
    547000   2032.2425     -604.43155      0             -579.47619      12334.456      1751.7577    
    548000   1939.1067     -601.00599      0             -577.19432     -7734.3614      1713.4183    
    549000   1904.6298     -601.68784      0             -578.29953      32784.567      1713.3396    
    550000   2181.725      -599.45549      0             -572.66453      905.07873      1819.2987    
    551000   2037.9247     -603.38742      0             -578.36229      5731.0396      1841.4167    
    552000   2241.8295     -600.66651      0             -573.13748      18142.108      1822.8023    
    553000   1890.0895     -601.13562      0             -577.92586      5794.456       1787.1506    
    554000   1979.0706     -602.99889      0             -578.69647     -10233.915      1764.3974    
    555000   2090.4947     -601.3872       0             -575.71653     -11119.383      1785.1381    
    556000   1958.2361     -599.6834       0             -575.63682     -21617.943      1789.6989    
    557000   1982.2376     -600.54983      0             -576.20852     -3540.3147      1787.8263    
    558000   2017.5992     -602.47773      0             -577.70219      9213.2269      1815.7961    
    559000   2060.8226     -601.94733      0             -576.64102     -6224.3189      1822.2284    
    560000   2355.8112     -601.12997      0             -572.20128      4415.5405      1763.7625    
Loop time of 5.9106 on 1 procs for 80000 steps with 96 atoms

Performance: 1169.424 ns/day, 0.021 hours/ns, 13534.998 timesteps/s, 1.299 Matom-step/s
99.2% CPU use with 1 MPI tasks x no OpenMP threads

MPI task timing breakdown:
Section |  min time  |  avg time  |  max time  |%varavg| %total
---------------------------------------------------------------
Pair    | 4.9903     | 4.9903     | 4.9903     |   0.0 | 84.43
Bond    | 0.0032048  | 0.0032048  | 0.0032048  |   0.0 |  0.05
Neigh   | 0.21985    | 0.21985    | 0.21985    |   0.0 |  3.72
Comm    | 0.18829    | 0.18829    | 0.18829    |   0.0 |  3.19
Output  | 0.01275    | 0.01275    | 0.01275    |   0.0 |  0.22
Modify  | 0.45947    | 0.45947    | 0.45947    |   0.0 |  7.77
Other   |            | 0.03678    |            |       |  0.62

Nlocal:             96 ave          96 max          96 min
Histogram: 1 0 0 0 0 0 0 0 0 0
Nghost:            486 ave         486 max         486 min
Histogram: 1 0 0 0 0 0 0 0 0 0
Neighs:              0 ave           0 max           0 min
Histogram: 1 0 0 0 0 0 0 0 0 0
FullNghs:         2430 ave        2430 max        2430 min
Histogram: 1 0 0 0 0 0 0 0 0 0

Total # of neighbors = 2430
Ave neighs/atom = 25.3125
Ave special neighs/atom = 0
Neighbor list builds = 1890
Dangerous builds = 0

fix npt1 all npt temp 2000 1000 0.1 iso 0 0 1
run 80000
Per MPI rank memory allocation (min/avg/max) = 8.549 | 8.549 | 8.549 Mbytes
   Step          Temp          E_pair         E_mol          TotEng         Press          Volume    
    560000   2355.8112     -601.12997      0             -572.20128      4415.5405      1763.7625    
    561000   1824.1966     -602.45916      0             -580.05855     -4773.1034      1802.3213    
    562000   1970.1665     -603.21379      0             -579.0207       5933.4546      1801.9833    
    563000   2103.5763     -599.4227       0             -573.59139     -25292.172      1828.5996    
    564000   1932.8071     -604.14925      0             -580.41493      4659.045       1821.6197    
    565000   1891.0976     -600.65566      0             -577.43353     -14257.48       1792.3348    
    566000   1817.293      -603.37445      0             -581.05861     -4587.1551      1827.3584    
    567000   1934.4416     -603.53191      0             -579.77752     -2189.7827      1764.6261    
    568000   1758.0377     -604.32314      0             -582.73494      24567.137      1751.5237    
    569000   1948.9772     -602.44744      0             -578.51456      4957.4287      1731.0073    
    570000   1914.2777     -604.96613      0             -581.45935      16866.484      1760.6522    
    571000   1616.7374     -602.94846      0             -583.09539     -17142.901      1801.9799    
    572000   2081.5807     -602.574        0             -577.01279     -13807.272      1786.9467    
    573000   1810.0484     -603.61933      0             -581.39246     -17610.628      1827.1842    
    574000   1662.7239     -602.1428       0             -581.72503      12736.925      1785.802     
    575000   1853.3304     -601.67763      0             -578.91926     -9825.6074      1785.3341    
    576000   1703.8209     -606.28994      0             -585.36751      6957.9532      1758.3646    
    577000   1759.0463     -603.66304      0             -582.06245      5548.6683      1743.2145    
    578000   2070.7864     -608.37565      0             -582.94699     -806.77039      1809.9226    
    579000   1710.7018     -606.01415      0             -585.00723      8804.3351      1794.5564    
    580000   1826.1131     -605.59496      0             -583.17081     -2717.4298      1795.3467    
    581000   1664.066      -606.70932      0             -586.27507      5046.8263      1769.3686    
    582000   1563.0894     -604.79835      0             -585.60406      24902.419      1747.1973    
    583000   1719.2068     -604.82608      0             -583.71471      4665.8608      1769.1416    
    584000   1723.3045     -602.54199      0             -581.38031      684.27402      1774.5817    
    585000   1795.2097     -606.87058      0             -584.82592      3582.5169      1786.5621    
    586000   1623.53       -606.16471      0             -586.22823      7497.6691      1765.5277    
    587000   1649.7799     -607.07497      0             -586.81614      5623.8326      1769.6596    
    588000   1578.0897     -606.74046      0             -587.36197     -1350.8336      1768.1717    
    589000   1766.8453     -608.05296      0             -586.3566       5441.867       1766.3311    
    590000   1598.2765     -606.22247      0             -586.59609      7513.1179      1773.0325    
    591000   1487.1013     -607.05049      0             -588.78932      5264.8973      1787.6578    
    592000   1649.4675     -603.19477      0             -582.93978     -14187.455      1815.6149    
    593000   1516.8902     -605.18994      0             -586.56296     -9287.4903      1822.7783    
    594000   1483.6318     -609.5918       0             -591.37323      6027.9577      1760.4704    
    595000   1708.1721     -608.65501      0             -587.67915     -7110.944       1748.2754    
    596000   1619.6233     -605.88314      0             -585.99463     -3457.0481      1738.4693    
    597000   1564.2721     -608.9829       0             -589.77409      394.62675      1726.6821    
    598000   1582.6364     -607.2538       0             -587.81948      18883.29       1749.2859    
    599000   1370.482      -609.15106      0             -592.32193      19264.71       1751.8852    
    600000   1388.3569     -606.95997      0             -589.91135      3990.8845      1791.1864    
    601000   1294.1986     -607.18357      0             -591.29118     -12231.632      1790.4653    
    602000   1256.0451     -608.56045      0             -593.13657     -5693.9317      1735.5494    
    603000   1481.9267     -610.18629      0             -591.98865      7609.1004      1708.4739    
    604000   1513.5863     -607.05615      0             -588.46974     -244.7974       1740.7363    
    605000   1421.369      -611.32247      0             -593.86846     -19645.03       1765.8231    
    606000   1160.6434     -610.47024      0             -596.21787      8735.1426      1787.574     
    607000   1451.2146     -608.89194      0             -591.07144     -15276.55       1845.8614    
    608000   1531.1088     -608.39565      0             -589.59407     -9071.7068      1844.7987    
    609000   1364.1395     -609.91368      0             -593.16244      21527.653      1763.5518    
    610000   1277.3512     -606.15287      0             -590.46737     -18945.947      1776.1128    
    611000   1384.6035     -609.49893      0             -592.49639     -14835.778      1789.585     
    612000   1228.3832     -609.5214       0             -594.43721     -12823.866      1769.6673    
    613000   1298.8036     -610.88363      0             -594.93469     -6689.371       1727.9336    
    614000   1393.4085     -609.54194      0             -592.43128     -8408.0779      1718.5108    
    615000   1150.3048     -610.56276      0             -596.43734      14478.24       1758.2026    
    616000   1327.3046     -608.65369      0             -592.35477      4586.8675      1817.8011    
    617000   1572.5062     -612.31225      0             -593.00232     -7459.0155      1791.2369    
    618000   1213.7396     -611.80684      0             -596.90247     -21251.387      1783.4785    
    619000   1291.4179     -610.18764      0             -594.3294       7936.6951      1724.9791    
    620000   1201.2588     -611.9081       0             -597.15699     -2727.3078      1768.1165    
    621000   1210.1232     -611.07175      0             -596.21179      11208.056      1799.0013    
    622000   1221.1156     -610.84983      0             -595.85488     -13202.632      1814.3054    
    623000   1227.3273     -613.60962      0             -598.53839     -4411.4617      1781.6947    
    624000   1270.1417     -610.8061       0             -595.20912      10969.444      1769.4784    
    625000   1241.392      -613.51954      0             -598.2756      -1203.0183      1703.8994    
    626000   1051.7833     -613.13401      0             -600.21841      14744.23       1706.3788    
    627000   1164.7537     -611.45135      0             -597.14851     -14805.315      1779.5941    
    628000   1187.4908     -613.13893      0             -598.55688      2704.5215      1833.7901    
    629000   1102.4075     -611.8494       0             -598.31216      9338.9903      1756.4268    
    630000   944.5423      -614.1243       0             -602.52559     -2797.216       1793.0356    
    631000   1112.1277     -613.76557      0             -600.10896     -7671.0568      1749.5353    
[...]
Neighs:              0 ave           0 max           0 min
Histogram: 1 0 0 0 0 0 0 0 0 0
FullNghs:         2546 ave        2546 max        2546 min
Histogram: 1 0 0 0 0 0 0 0 0 0

Total # of neighbors = 2546
Ave neighs/atom = 26.520833
Ave special neighs/atom = 0
Neighbor list builds = 243
Dangerous builds = 0


fix npt1 all npt temp 500 10 0.1 iso 0 0 1
run 80000
Per MPI rank memory allocation (min/avg/max) = 8.549 | 8.549 | 8.549 Mbytes
   Step          Temp          E_pair         E_mol          TotEng         Press          Volume    
    880000   510.03636     -621.41086      0             -615.14776      1342.476       1727.3748    
    881000   476.36551     -622.21735      0             -616.36771      7300.0033      1754.9772    
    882000   454.28363     -621.96515      0             -616.38667      8071.0649      1704.8599    
    883000   487.70796     -622.1359       0             -616.14698      3269.0437      1768.9956    
    884000   461.53881     -622.74678      0             -617.07921      13027.806      1727.2939    
    885000   493.11897     -621.80475      0             -615.74939     -4190.4308      1761.4943    
    886000   441.19756     -622.51431      0             -617.09653      17126.899      1742.1941    
    887000   485.12951     -622.20534      0             -616.24809     -7484.8722      1744.139     
    888000   432.10139     -622.44108      0             -617.135        4195.3827      1757.5655    
    889000   468.3509      -621.98466      0             -616.23345     -5695.2431      1741.3995    
    890000   424.40619     -622.49885      0             -617.28727      2066.0818      1774.9624    
    891000   522.01036     -622.51779      0             -616.10765     -11470.272      1747.8911    
    892000   415.19089     -623.17269      0             -618.07427     -4409.2796      1741.4662    
    893000   460.91463     -622.62905      0             -616.96915      12831.643      1730.5389    
    894000   355.62329     -622.73302      0             -618.36607     -2924.3328      1755.9042    
    895000   379.8223      -622.11605      0             -617.45194     -10788.067      1750.1109    
    896000   379.65        -622.65984      0             -617.99784      10564.125      1732.0845    
    897000   401.52569     -623.65157      0             -618.72095     -2563.3991      1746.3148    
    898000   392.73812     -623.27143      0             -618.44872     -3146.5748      1738.3736    
    899000   369.39333     -623.59845      0             -619.06241     -2708.4583      1776.5702    
    900000   433.93454     -623.33954      0             -618.01095     -11736.222      1733.0648    
    901000   375.34231     -623.44012      0             -618.83103      2419.6697      1762.2095    
    902000   354.37343     -622.85257      0             -618.50096     -9346.2167      1738.6073    
    903000   351.07542     -623.98614      0             -619.67504      4183.8425      1761.7072    
    904000   371.63171     -623.9205       0             -619.35697     -7121.2512      1750.2586    
    905000   445.21046     -623.83323      0             -618.36617      2134.141       1743.9203    
    906000   295.74325     -623.60055      0             -619.96891     -1044.0171      1754.5731    
    907000   393.16539     -624.13169      0             -619.30373      2215.0847      1740.0413    
    908000   307.57844     -624.30617      0             -620.5292      -3891.1505      1758.8852    
    909000   317.91801     -623.87433      0             -619.97039      10131.598      1717.6724    
    910000   331.65677     -624.92174      0             -620.84909     -3038.0696      1748.3883    
    911000   334.47577     -624.2474       0             -620.14013      8044.9596      1723.7959    
    912000   263.95443     -624.02166      0             -620.78038      56.714839      1748.4521    
    913000   304.86672     -624.52872      0             -620.78504     -5358.8761      1740.5406    
    914000   300.16897     -624.2654       0             -620.57941     -12924.236      1772.0196    
    915000   271.523       -624.51978      0             -621.18556      4826.3035      1728.3159    
    916000   258.24438     -624.29939      0             -621.12823     -752.40549      1763.8196    
    917000   269.56419     -624.47907      0             -621.1689      -6901.6161      1751.3105    
    918000   266.41833     -625.30356      0             -622.03202     -5503.1482      1757.9869    
    919000   251.76127     -624.43454      0             -621.34298     -1616.6034      1733.945     
    920000   259.46769     -625.02638      0             -621.84019     -2639.2478      1745.5032    
    921000   299.82125     -624.707        0             -621.02528      4614.9731      1741.7563    
    922000   238.60743     -625.25184      0             -622.32181     -4050.4949      1741.4795    
    923000   282.77752     -625.09482      0             -621.62239      1442.0739      1730.2444    
    924000   234.90329     -625.63072      0             -622.74618     -520.16493      1760.4884    
    925000   233.31097     -625.33149      0             -622.4665      -7626.0969      1731.2622    
    926000   196.62345     -625.07217      0             -622.65769     -4518.5376      1753.0806    
    927000   214.41012     -624.92589      0             -622.293       -2581.4005      1734.8104    
    928000   190.7938      -625.71981      0             -623.37692     -879.45412      1747.6975    
    929000   248.00831     -625.76864      0             -622.72316     -145.08434      1728.0112    
    930000   198.27351     -625.89869      0             -623.46395      2495.1015      1743.4917    
    931000   190.23226     -625.80814      0             -623.47214      1827.0514      1735.0932    
    932000   169.71124     -625.87891      0             -623.7949       1863.481       1751.4273    
    933000   185.66133     -625.81545      0             -623.53558     -59.453178      1746.7908    
    934000   162.34402     -626.11439      0             -624.12085      8223.2037      1726.2332    
    935000   161.48332     -626.01872      0             -624.03575     -1344.5591      1745.5292    
    936000   163.02474     -626.26958      0             -624.26768      8195.1025      1725.0164    
    937000   160.94761     -626.12905      0             -624.15266     -2911.5123      1739.0982    
    938000   126.00105     -626.20267      0             -624.65541     -3383.2801      1743.2228    
    939000   154.85965     -626.31371      0             -624.41207     -3244.9315      1756.1496    
    940000   129.87495     -626.58583      0             -624.99101     -1357.3918      1744.3413    
    941000   123.2034      -626.50992      0             -624.99701      9501.0236      1727.521     
    942000   119.96368     -626.809        0             -625.33588     -1542.7281      1743.4369    
    943000   130.98353     -626.83859      0             -625.23015      2712.4792      1740.9189    
    944000   105.50087     -626.86668      0             -625.57116      4605.7506      1731.4626    
    945000   108.40135     -627.0172       0             -625.68606     -3709.7642      1736.9115    
    946000   104.44199     -626.97131      0             -625.68879     -968.90057      1741.0884    
    947000   86.602582     -627.0735       0             -626.01004     -5635.6136      1743.1215    
    948000   90.784618     -627.06162      0             -625.94681      5565.0592      1732.2833    
    949000   72.084443     -627.20122      0             -626.31605      121.83652      1737.243     
    950000   77.480578     -627.15808      0             -626.20664      1949.6003      1724.0393    
    951000   71.190831     -627.31758      0             -626.44338     -1625.4559      1735.2549    
    952000   63.809808     -627.51576      0             -626.7322       830.48181      1730.8968    
    953000   58.235958     -627.5209       0             -626.80578     -1160.2311      1733.5719    
    954000   44.934957     -627.54714      0             -626.99535      4608.27        1722.952     
    955000   47.536499     -627.68051      0             -627.09678      277.87231      1736.2924    
    956000   34.607252     -627.73495      0             -627.30999      794.66006      1732.5325    
    957000   31.85489      -627.81258      0             -627.42141     -3118.6949      1741.5229    
    958000   22.44416      -627.8588       0             -627.58319      1431.6401      1725.6182    
    959000   16.479187     -627.93124      0             -627.72888     -2664.0457      1743.5208    
    960000   10.961269     -628.02513      0             -627.89052     -2060.7686      1734.2253    
Loop time of 5.38892 on 1 procs for 80000 steps with 96 atoms

Performance: 1282.632 ns/day, 0.019 hours/ns, 14845.275 timesteps/s, 1.425 Matom-step/s
99.0% CPU use with 1 MPI tasks x no OpenMP threads

MPI task timing breakdown:
Section |  min time  |  avg time  |  max time  |%varavg| %total
---------------------------------------------------------------
Pair    | 4.7235     | 4.7235     | 4.7235     |   0.0 | 87.65
Bond    | 0.0030991  | 0.0030991  | 0.0030991  |   0.0 |  0.06
Neigh   | 0.0050591  | 0.0050591  | 0.0050591  |   0.0 |  0.09
Comm    | 0.17061    | 0.17061    | 0.17061    |   0.0 |  3.17
Output  | 0.011942   | 0.011942   | 0.011942   |   0.0 |  0.22
Modify  | 0.44647    | 0.44647    | 0.44647    |   0.0 |  8.28
Other   |            | 0.02826    |            |       |  0.52

Nlocal:             96 ave          96 max          96 min
Histogram: 1 0 0 0 0 0 0 0 0 0
Nghost:            488 ave         488 max         488 min
Histogram: 1 0 0 0 0 0 0 0 0 0
Neighs:              0 ave           0 max           0 min
Histogram: 1 0 0 0 0 0 0 0 0 0
FullNghs:         2486 ave        2486 max        2486 min
Histogram: 1 0 0 0 0 0 0 0 0 0

Total # of neighbors = 2486
Ave neighs/atom = 25.895833
Ave special neighs/atom = 0
Neighbor list builds = 43
Dangerous builds = 0

fix npt1 all npt temp 10 10 0.1 iso 0 0 1
run 80000
Per MPI rank memory allocation (min/avg/max) = 8.549 | 8.549 | 8.549 Mbytes
   Step          Temp          E_pair         E_mol          TotEng         Press          Volume    
    960000   10.961269     -628.02513      0             -627.89052     -2060.7686      1734.2253    
    961000   9.0919835     -628.03694      0             -627.92529     -1849.4894      1737.5564    
    962000   10.165189     -628.01664      0             -627.89182     -900.55452      1732.8265    
    963000   10.026235     -628.0156       0             -627.89248      591.28658      1731.8333    
    964000   11.776003     -628.01654      0             -627.87194      1503.3708      1734.289     
    965000   9.4579161     -628.02157      0             -627.90543      596.70685      1729.6648    
    966000   10.029561     -628.00084      0             -627.87768      1381.5282      1731.8619    
    967000   11.410065     -628.03293      0             -627.89282      441.32983      1731.5131    
    968000   10.592664     -628.00532      0             -627.87525     -835.67436      1739.5356    
    969000   8.6483233     -628.04086      0             -627.93466     -588.04535      1733.9844    
    970000   10.523793     -628.01678      0             -627.88756     -467.56295      1736.0004    
    971000   10.647119     -628.01892      0             -627.88817     -788.61735      1735.9516    
    972000   9.3256905     -628.00723      0             -627.89271      2161.8686      1729.9319    
    973000   10.574777     -628.00775      0             -627.8779       2463.143       1728.6784    
    974000   10.195094     -628.03176      0             -627.90657      525.25685      1730.6088    
    975000   10.327893     -628.00884      0             -627.88202     -219.95382      1733.2631    
    976000   8.9317394     -628.0154       0             -627.90572      1754.709       1731.7635    
    977000   9.1706723     -628.00235      0             -627.88973      944.87417      1734.4997    
    978000   9.1554797     -628.01466      0             -627.90224     -679.6357       1735.2261    
    979000   10.087392     -628.00841      0             -627.88454     -1555.8553      1737.1966    
    980000   10.787613     -628.03064      0             -627.89817      1603.5806      1732.6084    
    981000   10.105154     -628.02591      0             -627.90183     -1013.3316      1735.6247    
    982000   9.3982665     -628.02988      0             -627.91447     -114.23498      1729.0576    
    983000   10.831289     -628.02371      0             -627.8907       370.45776      1729.4095    
    984000   9.4688882     -628.0216       0             -627.90532      22.267131      1732.2142    
    985000   9.4349286     -628.01405      0             -627.89819      1360.3324      1730.089     
    986000   11.159072     -628.01175      0             -627.87472      663.16139      1736.394     
    987000   10.226073     -628.02248      0             -627.8969       264.50495      1732.098     
    988000   8.3357025     -628.03451      0             -627.93215      839.71816      1736.7941    
    989000   9.4528936     -628.00125      0             -627.88517     -127.70071      1731.9751    
    990000   9.6309985     -628.03384      0             -627.91558      1303.9848      1729.2038    
    991000   10.839944     -628.01805      0             -627.88494      970.08579      1730.6041    
    992000   10.5832       -628.03374      0             -627.90378      1217.3301      1727.143     
    993000   8.8524708     -628.03044      0             -627.92173      1566.8813      1730.6676    
    994000   9.6396138     -628.01443      0             -627.89606      1391.8126      1731.7618    
    995000   9.5420884     -628.03765      0             -627.92047      602.11957      1731.9288    
    996000   10.53029      -628.02316      0             -627.89385     -763.28011      1737.7849    
    997000   10.6452       -628.03482      0             -627.9041      -1083.4614      1733.3195    
    998000   11.931432     -628.02425      0             -627.87774     -2836.3227      1742.1029    
    999000   10.850126     -628.02485      0             -627.89162     -1685.5263      1735.6447    
   1000000   8.3187352     -628.03141      0             -627.92926     -1220.6859      1733.8371    
   1001000   10.427507     -628.01918      0             -627.89113     -391.00342      1733.5581    
   1002000   10.834431     -628.00047      0             -627.86743      315.22822      1735.2119    
   1003000   10.246576     -628.04105      0             -627.91522     -433.33149      1733.8694    
   1004000   10.319918     -628.00719      0             -627.88046     -713.57403      1736.3154    
   1005000   9.6436387     -628.03053      0             -627.91211      104.705        1733.902     
   1006000   11.187542     -628.02256      0             -627.88518     -2253.6528      1738.3224    
   1007000   9.5277008     -628.03091      0             -627.91392     -1278.3381      1732.9514    
   1008000   9.6154581     -628.03312      0             -627.91505     -820.12335      1734.5384    
   1009000   10.583065     -628.01312      0             -627.88317     -573.6549       1733.76      
   1010000   9.8986521     -628.02568      0             -627.90413      2278.0512      1730.0794    
   1011000   11.794403     -628.03215      0             -627.88731      354.16888      1734.3669    
   1012000   10.026761     -628.02527      0             -627.90214     -975.03771      1735.4631    
   1013000   9.6925007     -628.03135      0             -627.91233      17.781627      1732.6847    
   1014000   11.366923     -628.02572      0             -627.88614     -901.11662      1737.9093    
   1015000   9.5428409     -628.02292      0             -627.90573     -1294.4836      1735.8605    
   1016000   12.133965     -628.0421       0             -627.89309     -853.7022       1731.9899    
   1017000   9.1562926     -628.02817      0             -627.91573     -1493.4864      1731.9895    
   1018000   10.448788     -628.01881      0             -627.8905      -1245.3876      1730.6164    
   1019000   9.432626      -628.03013      0             -627.9143      -211.76573      1728.7834    
   1020000   10.743526     -628.0009       0             -627.86897     -1807.8874      1734.0744    
   1021000   9.0757937     -628.0074       0             -627.89596     -1034.1671      1735.5206    
   1022000   8.8774672     -628.02421      0             -627.9152      -649.566        1735.6863    
   1023000   9.7431943     -628.01663      0             -627.89699      1269.7681      1734.8712    
   1024000   9.371732      -628.01661      0             -627.90153      1899.6827      1728.4313    
   1025000   10.31791      -628.01923      0             -627.89253      1592.3556      1732.5737    
   1026000   10.604499     -628.01807      0             -627.88785      1102.3519      1729.0422    
   1027000   8.043849      -628.02092      0             -627.92215      519.43978      1729.6635    
   1028000   9.4649655     -628.01482      0             -627.8986      -458.26423      1733.2167    
   1029000   9.5766797     -628.03919      0             -627.92159      198.39809      1733.7401    
   1030000   10.049346     -628.0138       0             -627.89039      305.19151      1734.0742    
   1031000   9.4611625     -628.03447      0             -627.91829      1005.3147      1731.4115    
   1032000   11.044003     -628.01009      0             -627.87447     -895.27177      1734.0855    
   1033000   9.243561      -628.01961      0             -627.9061       1106.8784      1732.3237    
   1034000   9.6965871     -628.01892      0             -627.89985      4.0311698      1731.9697    
   1035000   10.509198     -628.00691      0             -627.87786     -1222.9472      1730.3729    
   1036000   9.6148459     -628.02594      0             -627.90787     -233.68318      1733.3202    
   1037000   10.408441     -628.034        0             -627.90619      898.08634      1730.1506    
   1038000   10.024886     -628.01281      0             -627.88971     -1451.7772      1736.1122    
   1039000   10.16104      -628.03004      0             -627.90527     -233.46507      1734.5119    
   1040000   9.5758378     -628.02555      0             -627.90797     -1205.2899      1736.9934    
Loop time of 5.38078 on 1 procs for 80000 steps with 96 atoms

Performance: 1284.572 ns/day, 0.019 hours/ns, 14867.732 timesteps/s, 1.427 Matom-step/s
98.9% CPU use with 1 MPI tasks x no OpenMP threads

MPI task timing breakdown:
Section |  min time  |  avg time  |  max time  |%varavg| %total
---------------------------------------------------------------
Pair    | 4.715      | 4.715      | 4.715      |   0.0 | 87.63
Bond    | 0.0034709  | 0.0034709  | 0.0034709  |   0.0 |  0.06
Neigh   | 0          | 0          | 0          |   0.0 |  0.00
Comm    | 0.17279    | 0.17279    | 0.17279    |   0.0 |  3.21
Output  | 0.012828   | 0.012828   | 0.012828   |   0.0 |  0.24
Modify  | 0.44822    | 0.44822    | 0.44822    |   0.0 |  8.33
Other   |            | 0.02843    |            |       |  0.53

Nlocal:             96 ave          96 max          96 min
Histogram: 1 0 0 0 0 0 0 0 0 0
Nghost:            492 ave         492 max         492 min
Histogram: 1 0 0 0 0 0 0 0 0 0
Neighs:              0 ave           0 max           0 min
Histogram: 1 0 0 0 0 0 0 0 0 0
FullNghs:         2492 ave        2492 max        2492 min
Histogram: 1 0 0 0 0 0 0 0 0 0

Total # of neighbors = 2492
Ave neighs/atom = 25.958333
Ave special neighs/atom = 0
Neighbor list builds = 0
Dangerous builds = 0


write_data amorphousSiO.data
System init for write_data ...


Total wall time: 0:01:19
