96
 Atoms. Timestep: 0
2 0 7.95642 4.74695
2 4.63304 0 11.358
2 0 4.63304 4.74695
2 7.95642 0 11.358
2 0 4.63304 8.47514
2 7.95642 0 1.8641
2 0 7.95642 8.47514
2 4.63304 0 1.8641
2 10.7421 8.43088 6.61105
2 4.15858 10.7421 0
2 1.84736 4.15858 6.61105
2 8.43088 1.84736 0
2 1.84736 8.43088 6.61105
2 8.43088 10.7421 0
2 10.7421 4.15858 6.61105
2 4.15858 1.84736 0
2 10.5201 6.29473 5.04003
2 6.29473 10.5201 11.6511
2 2.06934 6.29473 5.04003
2 6.29473 2.06934 11.6511
2 2.06934 6.29473 8.18207
2 6.29473 2.06934 1.57102
2 10.5201 6.29473 8.18207
2 6.29473 10.5201 1.57102
2 10.1594 8.65935 9.20274
2 3.93011 10.1594 2.59169
2 2.43004 3.93011 9.20274
2 8.65935 2.43004 2.59169
2 2.43004 8.65935 9.20274
2 8.65935 10.1594 2.59169
2 10.1594 3.93011 9.20274
2 3.93011 2.43004 2.59169
2 2.43004 3.93011 4.01936
2 8.65935 2.43004 10.6304
2 10.1594 8.65935 4.01936
2 3.93011 10.1594 10.6304
2 10.1594 3.93011 4.01936
2 3.93011 2.43004 10.6304
2 2.43004 8.65935 4.01936
2 8.65935 10.1594 10.6304
2 0 10.703 0
2 1.88643 0 6.61105
2 0 1.88643 0
2 10.703 0 6.61105
2 0 0 1.872
2 0 0 8.48305
2 0 0 11.3501
2 0 0 4.73905
2 11.2706 2.31295 2.18973
2 10.2765 11.2706 8.80078
2 1.31887 10.2765 2.18973
2 2.31295 1.31887 8.80078
2 1.31887 2.31295 2.18973
2 2.31295 11.2706 8.80078
2 11.2706 10.2765 2.18973
2 10.2765 1.31887 8.80078
2 1.31887 10.2765 11.0324
2 2.31295 1.31887 4.42131
2 11.2706 2.31295 11.0324
2 10.2765 11.2706 4.42131
2 11.2706 10.2765 11.0324
2 10.2765 1.31887 4.42131
2 1.31887 2.31295 11.0324
2 2.31295 11.2706 4.42131
1 11.0086 7.83654 8.10972
1 4.75292 11.0086 1.49867
1 1.5809 4.75292 8.10972
1 7.83654 1.5809 1.49867
1 1.5809 7.83654 8.10972
1 7.83654 11.0086 1.49867
1 11.0086 4.75292 8.10972
1 4.75292 1.5809 1.49867
1 1.5809 4.75292 5.11238
1 7.83654 1.5809 11.7234
1 11.0086 7.83654 5.11238
1 4.75292 11.0086 11.7234
1 11.0086 4.75292 5.11238
1 4.75292 1.5809 11.7234
1 1.5809 7.83654 5.11238
1 7.83654 11.0086 11.7234
1 10.1088 10.1088 3.30552
1 2.48067 10.1088 9.91657
1 2.48067 2.48067 3.30552
1 10.1088 2.48067 9.91657
1 2.48067 10.1088 3.30552
1 10.1088 10.1088 9.91657
1 10.1088 2.48067 3.30552
1 2.48067 2.48067 9.91657
1 0 1.60471 1.57853
1 10.9848 0 8.18958
1 0 10.9848 1.57853
1 1.60471 0 8.18958
1 0 10.9848 11.6436
1 1.60471 0 5.03252
1 0 1.60471 11.6436
1 10.9848 0 5.03252
96
 Atoms. Timestep: 2000
2 -0.320463 7.85387 4.57496
2 4.20363 12.6386 12.2361
2 3.24316 4.14995 3.76688
2 8.44433 0.305943 12.1036
2 0.497123 3.88638 7.78418
2 7.38032 12.5422 1.39744
2 12.2819 7.23567 8.18201
2 3.30362 0.137728 1.22535
2 10.3748 7.47509 6.86425
2 3.87236 10.7275 12.9816
2 2.64141 4.97435 6.57229
2 8.2603 1.88975 0.196386
2 0.54627 8.34508 6.93412
2 8.0723 10.5381 13.2123
2 11.6475 3.53023 6.93366
2 4.2407 1.97451 13.4423
2 11.0611 5.50863 5.57301
2 6.29254 11.7427 11.4525
2 2.4711 6.59492 4.68197
2 6.32703 1.95054 11.6943
2 1.97199 5.83761 8.62455
2 5.86083 2.02065 1.45723
2 11.0578 5.48204 8.79371
2 5.28833 10.8306 1.18814
2 10.3139 8.34702 9.53758
2 3.11536 10.263 2.2797
2 2.1653 3.75691 9.30964
2 8.43218 2.09245 2.55812
2 2.05543 8.51569 9.22285
2 8.63966 10.0351 2.20263
2 11.0465 3.18146 9.26559
2 2.81365 2.38813 2.30695
2 4.744 6.08919 5.83622
2 9.46111 2.34399 11.4429
2 9.85098 9.66449 4.34853
2 3.77881 10.4486 10.3981
2 10.4268 3.75487 3.73378
2 3.67399 1.71265 10.538
2 2.24293 9.28302 4.65216
2 9.30245 10.996 10.5492
2 0.462591 11.3913 13.4698
2 1.65664 0.38085 6.65528
2 12.2634 1.36989 13.4365
2 11.0316 12.5862 6.44907
2 12.7254 0.380832 1.72682
2 12.7249 12.4455 8.12003
2 12.2773 12.5718 11.3769
2 12.9211 0.149712 4.99652
2 10.9164 2.08758 1.96366
2 10.8909 11.1975 8.85232
2 0.586093 10.5507 2.21884
2 1.63748 0.607005 9.28042
2 0.395114 3.2499 2.53555
2 1.98372 11.5323 8.15944
2 11.3447 10.7626 1.95008
2 10.4048 0.909792 8.96005
2 1.22873 10.5171 10.5881
2 1.84749 1.73535 4.61562
2 11.4572 1.25618 10.8998
2 10.923 12.1905 3.44044
2 12.4963 9.77382 11.4663
2 10.7098 1.71124 4.32753
2 1.48577 1.75222 11.4488
2 1.87249 11.7842 3.94964
1 10.6951 7.18731 8.30464
1 3.82735 11.1819 0.966362
1 1.98742 4.13845 7.80737
1 7.57621 1.26705 1.45354
1 1.10974 7.31665 8.55886
1 7.06537 10.7811 1.20862
1 12.0389 4.13422 8.31816
1 4.25948 1.66478 1.37742
1 3.4434 5.38723 5.16242
1 7.83863 1.79345 12.1181
1 11.2936 7.01725 5.40664
1 4.68808 11.0134 11.5698
1 11.2561 3.91276 5.14175
1 4.64326 1.3361 11.8782
1 1.1712 7.79586 5.40314
1 8.10622 11.7179 11.7463
1 9.86572 10.9014 3.09788
1 2.31225 10.3108 9.45377
1 2.10082 3.24206 3.47707
1 10.3111 2.08019 10.1795
1 1.83503 10.3524 3.42968
1 10.9283 10.0047 10.3412
1 9.97513 2.3788 3.05319
1 2.26071 2.21217 10.1048
1 12.2695 1.90873 1.23828
1 11.0109 12.5824 8.14799
1 12.5889 11.6252 1.15474
1 1.23477 -0.207099 8.07938
1 0.252833 11.2397 11.8608
1 1.47072 -0.0083616 4.83098
1 12.9743 1.46994 11.7768
1 11.1987 0.0847184 4.59887
96
 Atoms. Timestep: 4000
2 -0.225757 8.17905 4.48098
2 4.36772 12.3918 11.9019
2 3.14882 3.96603 4.56075
2 8.21992 12.6539 10.9222
2 12.3438 5.03716 7.77518
2 8.44322 0.00383613 1.23323
2 -0.278826 7.43791 8.86598
2 4.79991 -0.0919764 1.456
2 11.2455 8.22508 6.65326
2 3.66123 11.096 13.4802
2 1.76696 4.07231 6.31087
2 8.91652 0.943753 12.9331
2 0.768442 8.35877 6.49483
2 8.49823 11.534 -0.00536939
2 10.3798 4.46728 6.06025
2 3.9729 1.25173 13.3157
2 10.9773 6.71116 3.89397
2 6.16324 11.15 12.5845
2 1.64966 6.50261 4.79282
2 6.17302 1.79266 11.263
2 2.10919 6.1617 7.95163
2 6.3596 1.52021 0.447375
2 9.98274 6.70017 8.19241
2 6.08111 10.9299 1.19581
2 10.6997 8.40645 9.80748
2 3.6554 10.22 2.37061
2 1.94714 3.40498 9.28244
2 8.8402 2.46561 1.9374
2 2.20363 8.89101 9.15142
2 8.75938 11.558 2.59059
2 9.43577 3.84546 8.33457
2 4.25018 2.51937 2.55748
2 4.04959 5.85579 4.8585
2 8.69232 2.26204 10.2576
2 10.0074 9.39842 4.67862
2 3.30304 9.90183 10.9948
2 10.6366 3.71108 3.41557
2 3.36896 1.80699 10.3507
2 2.42338 9.04959 3.99105
2 9.07134 10.1757 11.5042
2 12.8551 11.3986 0.57405
2 1.29893 -0.0906398 6.97871
2 0.399618 1.53929 -0.25849
2 11.4043 -0.0362727 6.69217
2 12.5982 -0.242594 2.24477
2 12.2228 12.6852 8.77588
2 12.69 12.1786 11.6459
2 0.092258 0.145034 4.7977
2 11.5751 1.91184 1.53649
2 10.5517 11.175 9.39355
2 0.974055 10.6499 3.11444
2 1.94752 0.465251 8.80084
2 1.3944 2.00514 2.63162
2 1.78065 11.3569 9.28963
2 10.8765 10.8569 2.91406
2 10.4187 1.02785 8.22056
2 1.20896 10.4173 11.9714
2 2.2908 1.48192 5.09122
2 11.9555 0.968756 11
2 10.5752 12.2093 4.76112
2 11.5265 10.1986 11.9712
2 11.1452 1.63793 4.1823
2 0.997709 1.84394 10.8298
2 2.67616 11.5848 4.84232
1 11.3489 7.57952 8.34362
1 4.35472 11.4239 1.37742
1 1.0871 4.62101 7.9544
1 8.28029 1.4445 0.597634
1 1.09755 7.46663 8.19359
1 7.67883 11.3242 1.4164
1 10.4904 4.9012 7.59651
1 4.83973 1.73587 0.875118
1 2.61791 5.18199 5.34682
1 8.20092 1.16457 11.4457
1 11.1489 8.00303 4.98063
1 4.19828 10.7674 12.0125
1 10.6052 4.84496 4.25475
1 4.33167 1.06773 11.5534
1 1.28698 7.97251 4.6898
1 7.91874 11.134 12.0371
1 9.6258 10.9683 3.96949
1 1.82144 10.0646 10.3452
1 2.89828 2.26914 3.6437
1 9.55303 2.26072 8.65383
1 2.70197 10.6367 3.42059
1 10.5011 9.90571 10.6088
1 10.3778 2.30646 2.63605
1 2.12573 1.86274 9.43374
1 0.0962709 1.28273 1.43267
1 10.6383 12.3869 8.21138
1 12.6862 11.1834 2.28432
1 0.783115 12.2622 8.33133
1 12.8149 10.907 12.5272
1 1.7311 -0.0313644 5.36983
1 -0.0797506 1.06186 12.0277
1 11.6982 0.279964 4.99248
96
 Atoms. Timestep: 6000
2 0.405345 7.29443 5.0139
2 4.23378 1.03901 11.6913
2 1.33626 4.22694 4.40222
2 7.8026 0.0341613 11.904
2 0.710719 4.45367 7.39742
2 7.32872 12.3917 1.65931
2 12.6143 7.73295 8.25406
2 4.75805 1.15451 2.25495
2 10.9049 7.01679 6.24763
2 4.15279 11.4793 0.403715
2 3.60772 4.43948 6.19329
2 7.85137 1.8975 0.357479
2 1.5276 8.49738 6.25242
2 7.67642 10.5841 0.211719
2 10.8427 3.69071 6.10227
2 4.67095 3.62951 0.180027
2 10.8786 5.76676 4.06574
2 6.0018 10.8893 11.5352
2 2.64028 6.41366 4.32217
2 6.60115 2.72578 12.1257
2 2.56225 6.36548 7.22836
2 6.03735 2.68994 1.82429
2 10.5477 5.85316 8.00448
2 5.71816 10.875 2.21988
2 9.91705 8.93709 9.08825
2 3.62839 10.956 2.75828
2 2.72308 3.47532 8.74594
2 7.7312 1.03045 3.62674
2 3.21113 8.50168 8.85783
2 8.36924 9.77343 2.78596
2 10.9268 3.7447 8.99672
2 2.54353 2.70354 2.23104
2 4.23521 3.97939 3.33195
2 9.11891 2.39342 10.5685
2 9.96057 7.92521 3.83534
2 3.64113 11.5502 10.7089
2 9.37185 2.65299 4.27774
2 4.107 3.13584 10.6007
2 1.32974 9.31449 4.04622
2 8.30573 10.1755 11.0401
2 12.2373 10.4401 12.6407
2 2.27639 12.7923 6.16604
2 0.21226 1.88307 0.309158
2 10.8733 0.193195 7.20834
2 11.8334 12.4249 1.48801
2 0.416224 12.1312 9.47468
2 0.937034 12.4918 11.6883
2 12.332 12.1478 5.78596
2 9.88698 1.54544 1.85541
2 11.0153 10.8705 9.01535
2 1.35931 10.3301 1.53926
2 2.4605 1.4663 8.58916
2 12.3134 2.31246 2.82603
2 3.54423 11.3356 8.28329
2 11.1044 9.65302 2.07666
2 10.9598 0.668144 9.63563
2 1.79427 10.2751 10.4838
2 1.69813 1.79181 4.60368
2 11.3128 1.79295 11.501
2 10.3866 10.9711 4.25847
2 11.162 10.9575 11.0304
2 9.48509 0.478223 5.51979
2 1.96223 2.04897 11.1769
2 1.02785 11.7623 3.93847
1 10.8035 7.57824 8.05793
1 4.63434 11.8833 1.93889
1 2.62731 4.46303 7.44658
1 7.41587 1.50797 2.00501
1 2.02611 7.87318 7.91173
1 7.27854 10.6686 1.83905
1 11.5649 4.41219 7.57279
1 4.49153 3.15341 1.71829
1 3.26806 4.76186 4.33892
1 7.97975 1.77215 11.9508
1 11.19 7.29959 4.67333
1 4.45582 12.0559 11.8645
1 10.5884 3.67389 4.52653
1 4.81463 2.60816 12.0442
1 1.87729 7.82322 4.78003
1 7.41558 11.1016 11.8769
1 9.92029 9.72874 3.05376
1 3.23475 10.3284 9.64731
1 1.12948 2.98143 3.36032
1 10.553 2.18431 10.0407
1 1.98847 10.679 3.14761
1 9.96011 10.2706 10.1335
1 8.44013 1.50982 4.96003
1 2.68069 2.42201 9.94465
1 11.7225 1.39005 1.71948
1 11.6294 12.4005 8.55504
1 12.0678 10.5994 1.11535
1 2.94492 0.196259 7.65297
1 0.391412 11.1829 10.9132
1 1.15214 0.261144 5.14536
1 0.450182 1.52287 11.9735
1 10.5863 11.8577 5.80936
96
 Atoms. Timestep: 8000
2 12.5963 8.37796 4.24141
2 4.95573 12.0955 12.7311
2 2.13882 3.14761 4.2558
2 7.85802 0.235802 10.4013
2 12.7098 4.84161 8.2341
2 6.63444 -0.0749285 1.7866
2 0.225651 7.36793 8.27781
2 6.51767 10.4395 0.607558
2 11.4225 8.19711 6.91268
2 4.57247 10.0223 0.314138
2 1.29557 4.06172 6.48519
2 7.61146 0.633443 13.2761
2 1.18134 8.19071 6.37466
2 5.54609 11.2641 3.49121
2 10.4371 4.96916 6.48626
2 3.81819 1.4648 13.2779
2 10.2861 7.04395 4.79984
2 6.79313 11.1931 11.4096
2 0.798439 5.94321 4.8044
2 5.99966 1.04603 12.0157
2 2.07208 5.98457 7.83008
2 5.99801 2.50859 0.646768
2 11.0479 6.44632 8.79365
2 2.09256 9.99608 12.9913
2 11.5919 9.21599 9.50254
2 2.63407 10.9591 2.26026
2 2.58723 3.5598 8.90725
2 11.003 2.72321 1.60672
2 2.484 9.18161 8.78654
2 8.18436 10.2556 2.55157
2 10.5167 3.95588 9.59013
2 3.13879 2.522 2.33742
2 2.5636 5.13975 3.61433
2 9.16275 2.34228 11.2871
2 10.5275 9.65289 3.82348
2 4.52421 9.48251 11.9117
2 10.3976 4.28156 3.72199
2 3.2771 0.872072 10.7479
2 1.98764 8.40052 3.922
2 9.03617 10.4989 9.41277
2 0.191758 11.0652 0.306794
2 6.31256 12.5979 8.07869
2 0.73725 1.0645 13.204
2 11.2435 0.838003 7.206
2 12.0979 -0.0737422 0.981887
2 0.385408 0.359042 9.70555
2 0.157564 12.5853 11.5577
2 12.209 0.646114 5.01649
2 11.8097 2.7219 0.45333
2 9.0539 9.14611 10.9245
2 0.669729 10.0849 2.54408
2 3.33844 0.576043 8.62918
2 0.268988 2.37724 2.30658
2 3.94427 11.3781 9.58437
2 10.7365 11.3429 2.2213
2 10.9858 1.32578 9.5815
2 1.87665 11.0571 11.3108
2 1.80842 0.67251 4.05092
2 11.9025 2.27763 11.4141
2 9.71165 12.1509 4.80186
2 11.7934 10.5929 11.3849
2 10.1627 1.954 4.33294
2 1.45039 2.18919 10.6644
2 0.643877 12.0811 3.48023
1 11.5426 7.99352 8.62553
1 2.79256 10.0338 0.891512
1 1.29652 4.38585 7.87285
1 6.70889 1.03887 0.739207
1 1.85361 7.65746 7.85183
1 6.68515 11.2871 2.13231
1 11.1938 4.82363 8.32584
1 4.33 2.49338 0.876517
1 1.64361 4.66095 4.91679
1 7.6519 1.28491 11.4958
1 11.0467 8.54819 5.16014
1 5.7359 10.4508 12.5082
1 10.7573 5.24308 4.83346
1 4.30922 0.436056 12.0459
1 0.979413 7.53401 4.76775
1 7.59662 11.3964 9.88224
1 9.53618 10.9922 3.41145
1 3.15793 10.2229 10.4576
1 1.69406 2.18515 3.24433
1 10.4959 2.53235 10.3718
1 2.10626 10.1937 3.6145
1 10.5196 10.0676 10.4057
1 10.1534 2.70999 2.88719
1 2.71237 2.08648 9.62791
1 -0.00360351 1.61423 0.879549
1 12.2509 0.646808 8.49416
1 12.4778 11.4615 1.95975
1 4.44852 12.2602 8.2023
1 0.332066 10.7624 12.2099
1 0.642912 12.6227 4.8702
1 0.300581 1.42045 11.496
1 10.53 0.657458 5.65211
96
 Atoms. Timestep: 10000
2 0.302455 7.49734 5.22339
2 5.14096 0.45391 11.5688
2 4.43016 3.23782 4.15663
2 7.82539 11.8193 11.1339
2 0.23869 4.37381 7.87529
2 7.89903 0.226718 0.798357
2 -0.0784099 7.64465 8.38586
2 6.01907 10.486 11.9156
2 11.039 8.03932 6.36807
2 6.05964 0.718376 1.99219
2 3.21515 4.18802 6.75341
2 7.38971 1.63337 12.5253
2 2.46299 8.42017 6.91933
2 6.86342 11.0744 13.2156
2 9.63242 4.24009 7.7503
2 4.61514 3.09143 12.5237
2 8.35845 1.76122 7.14186
2 5.79774 10.6498 9.94713
2 3.63141 5.95057 5.60098
2 6.21181 2.02084 10.61
2 2.01239 6.3455 8.5928
2 5.85636 5.57983 13.3569
2 11.2341 5.76481 8.71612
2 3.08334 12.1578 0.963285
2 7.15003 0.452668 9.29771
2 4.32867 11.0704 2.9668
2 1.56092 3.60664 9.19521
2 5.9199 2.96539 0.811322
2 1.58432 9.11474 9.31
2 8.96664 10.8869 2.27695
2 11.3048 2.39362 9.04893
2 4.15792 3.80307 1.2998
2 5.83109 4.05877 5.31475
2 12.5729 -0.0898069 8.12733
2 11.3196 8.89055 3.67433
2 3.41021 11.6673 10.501
2 10.2245 3.29707 5.46801
2 3.06083 1.04453 10.6877
2 2.94277 8.36525 3.92596
2 8.96048 10.2158 10.0378
2 0.44666 11.7963 0.956759
2 1.33511 12.2378 6.46084
2 -0.161678 1.80546 0.58417
2 8.25065 0.0426855 6.05676
2 12.4621 2.61338 3.45083
2 7.7965 11.7708 8.34768
2 1.00595 0.233208 12.0788
2 11.6969 12.6843 5.4628
2 0.877344 0.383194 2.14548
2 10.5396 8.17536 11.4763
2 1.69529 10.1216 2.01868
2 1.08206 1.29196 8.77629
2 1.95981 2.86793 3.14104
2 1.47602 11.3697 8.56374
2 11.9693 10.7834 2.65147
2 9.3615 2.14785 10.7595
2 1.96481 10.787 12.0173
2 0.48766 11.4277 4.16283
2 11.9262 1.18617 11.4828
2 10.0875 11.4244 4.36658
2 10.4909 8.44619 8.92255
2 10.1367 1.21131 3.86422
2 1.36243 2.71518 11.6991
2 12.5494 9.74953 6.02095
1 11.4899 7.2538 7.84058
1 4.83158 12.4587 1.71135
1 1.86653 4.49271 7.88509
1 7.03392 1.69694 0.623935
1 1.79283 7.93427 8.3315
1 8.00657 11.3966 0.904831
1 11.5517 3.95941 8.59963
1 5.21431 4.12245 0.0367989
1 4.26693 4.37315 5.20791
1 7.59084 1.05042 10.8278
1 11.8354 8.5345 5.01569
1 5.10052 11.7225 10.8793
1 8.96137 3.25614 6.4845
1 4.63344 1.91644 11.1168
1 2.43174 7.4074 5.30648
1 7.57132 10.7977 9.70249
1 10.4225 10.3014 3.03957
1 1.99155 10.7678 10.0735
1 3.78618 2.49671 2.83773
1 10.9654 1.91401 10.5676
1 3.01845 9.9159 3.09274
1 9.47307 8.76495 10.0336
1 11.0724 2.40689 4.17064
1 1.83751 2.17812 10.1154
1 0.391854 2.36312 2.19323
1 7.56566 0.426974 7.59702
1 0.470856 11.5102 2.57229
1 1.10698 0.0328332 7.83481
1 1.57753 11.9514 12.994
1 -0.0720492 11.3226 5.596
1 0.232778 1.6445 12.6065
1 9.6215 0.138987 5.09015
96
 Atoms. Timestep: 12000
2 0.60539 8.22389 5.55315
2 4.74979 0.361819 11.1158
2 4.24305 4.43684 3.85233
2 8.08689 12.3905 9.98556
2 0.693555 3.87153 7.26128
2 7.44493 11.0745 0.825098
2 12.4463 6.95446 7.87614
2 4.91407 7.61622 3.15586
2 10.8244 7.70923 6.06067
2 1.84309 1.84321 7.58703
2 3.07985 4.35074 5.88499
2 8.02582 0.326532 12.2447
2 2.20415 8.78019 6.6313
2 9.08434 8.85657 1.16147
2 10.3143 3.64251 6.18363
2 4.58028 2.29146 12.6679
2 7.55056 2.85009 6.87071
2 6.2234 11.5367 9.81541
2 2.78648 6.55708 5.27096
2 6.90986 2.46988 12.4134
2 1.8345 6.21633 7.48151
2 6.84346 1.40275 10.4593
2 10.362 5.27573 7.60583
2 3.71394 12.349 0.710997
2 5.05254 2.21639 7.3725
2 3.66952 1.97824 5.2411
2 3.10831 4.21055 9.03609
2 5.38456 0.713917 0.535794
2 1.77764 9.30205 9.04608
2 11.5781 10.5984 1.42708
2 11.0507 3.21852 8.83924
2 4.50151 2.08176 2.33678
2 4.58608 6.91699 4.32441
2 12.2534 1.11404 9.62631
2 11.8724 9.07049 3.34205
2 3.90765 10.6078 10.0805
2 10.3367 1.85044 4.32369
2 3.88604 2.69174 10.368
2 3.68959 8.83408 4.1144
2 8.11407 10.4758 8.41249
2 1.58507 12.2721 0.204933
2 12.2903 12.5495 7.9038
2 0.894228 2.50411 0.891948
2 8.42766 12.4323 7.1684
2 12.4526 1.83987 3.47567
2 7.0583 1.04585 8.53539
2 0.68882 1.26064 12.1236
2 9.39 9.75322 7.05778
2 1.86543 0.15233 2.75608
2 10.9339 10.0971 8.31774
2 3.49072 9.92855 1.76952
2 1.48536 1.97345 9.63551
2 2.08514 2.28742 3.73008
2 2.01966 12.1135 8.91194
2 1.44778 10.412 1.7979
2 10.0059 1.49008 11.4147
2 1.10615 11.5946 10.6152
2 10.739 0.0329442 5.5319
2 11.887 3.20777 11.7524
2 12.4143 12.0179 2.89196
2 9.94005 8.02855 8.23587
2 6.1598 9.57334 2.77499
2 1.64959 3.96347 11.492
2 11.4921 10.3166 5.68981
1 10.9274 6.80124 7.49118
1 3.35369 1.76803 6.97101
1 2.22039 4.59957 7.61313
1 6.83697 12.2311 12.961
1 1.20751 8.02466 7.8934
1 7.59851 9.74008 1.92543
1 11.6337 3.6761 7.4156
1 3.98865 1.38525 0.634548
1 4.10544 5.52666 5.0005
1 8.52249 1.08046 10.8469
1 11.8166 8.82837 5.11037
1 5.09868 11.3936 11.1384
1 9.13649 2.68802 5.55247
1 5.47148 2.00218 11.2849
1 2.42784 8.15656 5.31088
1 7.33266 12.0187 8.39496
1 -0.00384506 10.3684 2.35033
1 2.32981 10.8894 9.79502
1 3.71694 2.64349 3.66457
1 11.253 2.1881 10.5453
1 4.58906 9.32843 2.7737
1 9.38453 9.47109 8.61413
1 11.1451 0.324321 3.89985
1 2.42281 3.49353 10.4744
1 1.05077 1.92812 2.53797
1 6.4335 1.74972 7.41037
1 2.69296 11.4419 1.57534
1 0.947301 0.64367 8.51062
1 0.718813 12.482 11.81
1 11.5258 11.1142 7.08028
1 0.906764 2.9631 12.8142
1 9.39823 11.6602 6.22276
96
 Atoms. Timestep: 14000
2 3.08198 9.17753 7.10032
2 5.1048 11.3599 11.4181
2 4.90379 4.7188 3.41239
2 7.0616 9.33205 7.63412
2 11.8022 3.52403 6.86277
2 6.94622 11.1359 1.69277
2 0.934086 7.07111 7.6351
2 3.00967 9.33482 4.26867
2 11.3448 8.53191 5.71518
2 2.86949 2.16639 6.13185
2 7.45883 4.154 4.49611
2 9.27578 1.04949 10.8315
2 2.6918 6.21002 7.83609
2 5.32049 9.80037 0.521482
2 9.02081 3.72714 8.94147
2 5.03965 2.07935 11.6915
2 7.43959 2.11576 6.50041
2 6.81384 9.60775 10.4079
2 5.37613 5.85507 5.75589
2 6.75423 1.07561 12.1273
2 2.51725 5.16484 9.93836
2 7.10447 1.3662 10.0978
2 10.475 6.20814 7.54331
2 3.11727 1.09533 0.6026
2 5.40508 0.587234 6.1372
2 4.5187 2.56546 4.18914
2 3.73946 3.09019 9.86078
2 8.42744 11.4371 12.8227
2 1.71749 7.34093 9.8527
2 9.74449 11.3688 0.693993
2 9.06586 5.51152 12.5569
2 4.18912 2.72461 1.76173
2 3.40989 8.14146 4.89726
2 12.067 1.99683 7.17465
2 11.1293 9.73305 3.16622
2 3.88978 8.86067 11.3659
2 8.52976 2.25687 3.50963
2 4.13063 0.799212 10.0146
2 4.55571 6.11735 6.9571
2 9.01033 9.83742 8.75098
2 1.50987 11.6283 12.4886
2 2.24466 11.87 7.10151
2 1.2989 2.44727 1.82425
2 8.58309 0.450792 5.80015
2 11.6086 2.67674 3.14263
2 7.0347 11.9894 8.26402
2 0.269235 4.80608 10.4187
2 10.7028 11.8235 7.41949
2 11.521 9.94941 0.686757
2 0.575236 10.7695 8.76404
2 2.1792 11.3699 2.1043
2 2.12443 1.29911 8.78475
2 2.16303 3.91178 3.30849
2 2.49722 9.61313 9.17541
2 11.9749 12.0772 1.38094
2 8.53858 3.10314 11.8169
2 0.855753 9.65226 10.6049
2 10.6159 1.90636 5.06942
2 11.2214 3.33218 12.0967
2 10.3193 0.389297 3.0733
2 10.8735 8.8444 8.03605
2 4.61454 10.7245 3.18559
2 1.73689 2.18144 11.0027
2 11.0583 10.6633 5.11459
1 11.1778 7.64209 7.0944
1 4.24189 1.58871 5.51398
1 4.22981 4.72002 10.3496
1 7.38591 0.457929 0.958233
1 1.36246 6.04907 9.08222
1 5.8577 10.1682 1.86011
1 10.4215 4.42646 7.71778
1 3.7151 2.28147 12.613
1 5.99754 4.95858 4.47393
1 8.36878 2.3489 10.0955
1 11.6785 9.45179 4.46904
1 5.65526 9.65289 11.6693
1 7.85704 2.85377 5.16729
1 5.70213 0.879137 10.7537
1 3.34714 7.40965 6.73035
1 7.12023 10.3404 8.89854
1 10.7296 10.9543 2.14686
1 2.49307 8.88371 10.688
1 3.71819 3.56047 3.22342
1 9.73972 3.9544 12.4501
1 3.16523 10.9454 3.74247
1 10.9023 10.4236 8.69556
1 10.1785 2.1401 3.43746
1 2.94157 1.79528 10.1281
1 0.411352 3.78062 2.7139
1 7.12581 0.456769 6.7249
1 1.52579 0.589794 1.24218
1 1.66103 1.4247 7.12048
1 12.2301 10.3846 11.8627
1 2.10645 10.4355 7.79275
1 0.63115 3.57209 11.2001
1 10.1182 0.831503 6.36874
96
 Atoms. Timestep: 16000
2 2.30054 9.78767 7.69187
2 5.50245 12.1505 11.2763
2 4.89854 4.96958 5.422
2 6.28023 7.86668 6.91655
2 11.6289 2.88318 6.03297
2 7.00532 11.4213 3.72588
2 1.13042 6.76514 8.14955
2 3.41508 9.27322 5.18948
2 11.6353 7.34773 4.87937
2 2.48657 1.08412 7.45754
2 7.45153 5.39673 3.84821
2 6.76254 1.55912 5.51172
2 3.59295 7.88407 7.84503
2 6.83037 6.98011 1.9557
2 8.80925 2.5007 7.33477
2 5.18774 3.12405 12.8641
2 7.63685 3.11193 4.53069
2 5.94576 10.1565 9.41266
2 6.23045 7.29204 5.63763
2 6.8566 1.59794 0.885919
2 3.55413 7.19692 10.7405
2 5.72931 3.28173 6.97543
2 11.2539 5.35165 6.84581
2 2.48663 2.32426 2.07704
2 4.28302 11.4761 5.22209
2 3.34085 2.30549 5.50857
2 4.37673 5.11414 8.03385
2 6.41909 10.7346 0.976097
2 10.5601 6.59957 9.82448
2 8.66641 11.6439 1.68786
2 10.1234 3.64517 9.07972
2 4.29604 3.68445 3.05767
2 4.47916 6.9341 4.94027
2 0.53239 3.09591 8.62173
2 1.34633 9.00881 2.77317
2 4.34964 9.43429 12.0648
2 8.70534 3.62343 2.07944
2 5.89187 3.04339 9.96444
2 4.72704 9.18446 6.83504
2 7.98702 9.0109 8.17753
2 3.9661 7.95545 2.46405
2 2.17848 12.0276 9.4798
2 1.44782 1.61135 3.99024
2 8.54012 11.7363 6.30156
2 11.5631 4.16685 3.2929
2 6.69533 10.4755 6.62807
2 1.61217 5.47837 10.5214
2 10.2643 10.2917 6.87637
2 10.6775 10.5279 1.30826
2 11.2093 9.93268 9.0819
2 2.71671 10.8002 3.18058
2 3.42635 2.97363 8.85765
2 2.51288 3.93159 4.50665
2 2.20406 9.46955 10.3824
2 11.7406 11.6553 2.93127
2 10.6223 3.97503 12.5346
2 1.74311 8.79506 12.8486
2 9.32851 11.5938 3.90012
2 11.6235 4.12784 10.7405
2 10.3173 1.55028 1.95404
2 10.0636 7.7072 7.56104
2 5.2748 5.84527 3.11339
2 2.75633 3.75751 12.6626
2 11.1505 10.1777 5.0854
1 11.3483 7.07408 6.51388
1 3.03165 0.685442 5.84344
1 4.22141 6.60111 8.87031
1 7.16182 11.9019 1.9958
1 0.717002 6.82528 9.72097
1 5.22528 6.68798 1.60517
1 10.4677 3.76087 7.47485
1 3.74954 3.29114 1.49655
1 6.02338 6.00663 4.60413
1 7.33678 2.69928 6.35445
1 0.349642 8.96408 4.19961
1 5.49001 10.3524 11.3535
1 7.53564 4.00715 3.005
1 5.93429 2.35973 11.7731
1 3.6995 8.05669 6.15992
1 6.21489 9.25302 8.03599
1 10.0403 11.6751 2.50805
1 2.97751 8.41491 11.6649
1 4.0431 3.55276 4.66434
1 9.94375 5.08648 10.1352
1 3.50987 9.36103 3.34363
1 9.61775 9.03048 8.389
1 10.3838 3.3207 2.23165
1 4.98264 3.36013 8.63805
1 0.817042 3.42608 4.5311
1 6.11979 11.4582 5.20721
1 2.15493 12.3347 2.63038
1 2.09598 2.20245 9.01416
1 0.934968 10.0478 1.276
1 1.71787 10.2758 9.05746
1 1.93705 3.69721 11.0187
1 9.88346 10.9835 5.54397
96
 Atoms. Timestep: 18000
2 2.28728 11.7407 7.11726
2 3.0791 12.0032 1.84139
2 5.41845 6.75878 5.02642
2 6.47121 5.63042 7.85865
2 0.990375 5.08567 6.2069
2 7.60698 11.1077 4.29459
2 9.41979 6.75812 7.40382
2 1.29463 9.69342 2.67493
2 0.657888 7.89422 6.47322
2 0.482645 1.94144 5.89233
2 7.17674 3.55304 1.80512
2 5.80607 2.89074 7.65148
2 5.00279 6.1515 9.41831
2 5.16353 7.60625 3.04294
2 10.6222 3.82306 5.43319
2 5.05303 1.00114 2.74512
2 9.23119 3.72098 3.52355
2 5.67884 9.20665 10.2702
2 5.82588 6.9765 7.45301
2 6.28946 9.50944 5.87109
2 1.8867 5.63431 9.73751
2 7.80308 4.29347 5.92296
2 11.4297 5.43553 7.9762
2 2.43402 2.64661 1.80532
2 2.16075 11.1992 4.46102
2 5.33541 4.76914 4.96828
2 3.98769 3.50307 8.84361
2 5.95 10.145 3.02724
2 9.63973 4.55041 9.44695
2 9.37148 11.1738 12.0323
2 11.1298 2.88982 8.06362
2 5.82537 4.53526 3.0145
2 3.67955 8.35556 7.05101
2 2.43421 4.18125 10.0842
2 0.688931 7.16299 4.42967
2 3.42733 7.85634 9.89786
2 9.79319 2.44594 0.705192
2 7.85386 11.7487 1.88593
2 5.47317 12.2672 6.46758
2 8.80704 10.0695 9.0141
2 3.45172 9.76894 2.52469
2 1.3515 2.28721 9.14163
2 1.15285 4.66086 3.65386
2 9.34353 1.83809 4.36232
2 0.485597 4.45168 12.2823
2 6.08879 11.5139 8.69032
2 3.10928 2.15347 11.1607
2 9.53944 10.9618 6.11754
2 11.7748 6.87604 2.4154
2 11.2385 11.5227 8.38636
2 1.44389 1.09876 3.27268
2 3.88537 1.47815 8.55098
2 3.27162 5.58377 4.66342
2 12.1152 8.0153 8.92468
2 11.6769 3.06713 2.23962
2 11.572 2.84879 10.9139
2 1.40104 6.77905 11.4721
2 9.86948 11.4232 2.72385
2 9.06645 1.79444 9.91396
2 0.916758 1.79924 13.0087
2 10.2459 8.73012 7.71385
2 4.53233 8.9711 4.79848
2 4.34824 2.33091 0.924617
2 10.7693 8.91294 1.97338
1 11.0441 7.29368 7.66011
1 0.875323 11.8198 5.42383
1 5.32164 4.57392 8.72317
1 6.23461 11.0939 5.5512
1 8.44658 5.60301 8.23438
1 4.71313 9.16769 3.18681
1 11.801 3.75545 6.7442
1 5.40058 2.72814 2.38982
1 5.35238 8.19275 6.27374
1 9.15666 3.59206 5.14702
1 11.8585 8.4715 3.42922
1 5.00289 7.78897 10.2736
1 8.88904 2.71016 1.99222
1 6.38784 11.4592 2.35282
1 2.13447 8.60483 5.87456
1 6.98273 10.2105 9.38987
1 10.5077 10.4426 1.335
1 1.68553 7.56206 10.0144
1 4.58103 5.88429 3.73338
1 10.4205 3.21141 9.63247
1 2.39821 10.9525 2.83491
1 10.0518 10.4972 7.69836
1 11.6818 3.04491 12.6416
1 6.43749 4.08208 6.152
1 1.49264 5.73573 4.78525
1 5.4779 1.08846 8.09247
1 1.46655 3.17092 3.26524
1 2.79367 2.70902 9.55543
1 0.830588 6.16873 0.930289
1 0.928579 0.927973 8.05564
1 2.77793 1.44791 0.530556
1 9.18827 11.8105 4.21142
96
 Atoms. Timestep: 20000
2 0.684898 12.3922 7.53753
2 0.99066 11.3558 1.07555
2 3.18791 5.59934 5.3489
2 6.74959 8.06088 11.5964
2 0.604541 2.74189 5.39398
2 7.30323 11.0473 6.07232
2 7.64672 9.68271 10.1918
2 12.3626 10.1536 2.92193
2 1.2076 6.85806 6.27448
2 11.8643 0.678287 6.17719
2 8.95376 8.06591 12.5541
2 5.43018 2.72685 7.11429
2 6.53789 6.26001 9.72521
2 5.47448 6.12109 5.27346
2 10.3398 2.31817 5.59865
2 7.60916 11.1259 1.07618
2 10.1214 2.06496 2.88581
2 6.59615 8.4868 8.635
2 4.7243 7.1233 6.94208
2 5.03254 9.40668 6.46857
2 5.59248 4.25296 0.12507
2 7.9939 1.82353 5.19671
2 12.5526 6.11136 8.30698
2 0.687865 2.03828 1.04891
2 0.779294 11.0736 4.70985
2 5.92772 4.00318 4.82039
2 6.24196 5.43565 12.743
2 4.72657 10.4715 1.4478
2 9.46734 10.5244 12.5327
2 8.89294 8.30028 1.96155
2 12.523 2.84332 7.42213
2 4.49507 4.78143 2.87954
2 3.50448 7.52455 4.46789
2 1.34233 3.64479 9.71002
2 1.21084 5.21514 4.19094
2 3.75777 7.38285 9.01741
2 10.5179 6.08296 0.832134
2 6.46659 9.84843 12.3743
2 4.79705 12.2136 7.08483
2 9.41883 7.37952 9.37896
2 2.79426 11.4383 2.53371
2 4.26497 9.20798 9.56622
2 0.340762 2.434 3.37303
2 8.78844 0.209325 4.31367
2 0.0816207 6.32863 13.092
2 9.40275 9.63635 8.01054
2 2.5123 2.23728 11.7818
2 9.96582 11.0112 6.05939
2 12.5184 9.24526 0.254724
2 11.4095 11.3214 8.36299
2 12.2334 0.561939 2.45593
2 3.36607 1.46094 8.76919
2 3.16 3.46438 4.11157
2 1.803 8.24702 8.53907
2 11.4633 3.91572 1.30155
2 11.2348 4.87926 11.4114
2 1.08426 7.73938 11.1887
2 8.39987 10.3898 3.66165
2 1.33838 0.797823 9.60969
2 0.713338 4.12468 12.823
2 11.658 8.8474 7.09334
2 4.90201 9.04469 3.88661
2 3.14288 3.03262 1.11176
2 10.0899 10.114 1.43157
1 0.337706 7.77161 7.4746
1 0.535722 11.9357 5.97513
1 6.50359 6.33512 11.2656
1 5.81146 10.865 6.80792
1 7.91832 9.32421 12.0425
1 4.05559 10.499 3.24227
1 11.8175 2.42244 6.24285
1 4.67199 3.83979 1.43674
1 5.14919 7.82548 5.32494
1 9.4135 2.0527 4.33215
1 11.9012 9.32105 1.88125
1 5.58112 7.1201 8.6055
1 9.1741 7.25943 0.810083
1 6.1466 10.8848 0.447846
1 1.76177 6.63916 4.79354
1 8.45215 8.68786 8.91089
1 8.62147 10.1345 1.98301
1 2.46617 8.34515 10.0524
1 4.48116 4.66774 4.61182
1 0.417582 4.63084 8.1737
1 0.750822 11.781 2.86915
1 10.8189 10.2874 7.44185
1 11.5086 4.9284 -0.081761
1 6.63126 2.60868 5.91317
1 1.36841 3.69187 3.93206
1 4.86736 1.03786 8.03763
1 11.9599 2.30097 2.12265
1 2.2293 2.05333 9.9398
1 0.0319465 7.864 12.5019
1 12.4906 0.056368 9.04301
1 1.96214 3.06555 13.2241
1 8.74939 11.1252 5.09006
96
 Atoms. Timestep: 22000
2 8.64108 11.7217 6.84147
2 10.432 11.2084 4.04161
2 0.558896 8.64966 5.60127
2 7.63034 6.52369 11.7
2 1.00708 3.47035 4.94393
2 8.80066 9.64773 5.90036
2 7.80722 9.22555 10.6625
2 1.17488 11.9258 2.88575
2 1.68473 5.90063 5.68999
2 11.1757 1.78143 6.66637
2 6.80006 3.91917 12.0931
2 5.75625 2.55587 5.71699
2 5.66189 5.90877 9.72415
2 5.39269 6.96952 4.59717
2 10.9275 4.11316 5.30332
2 9.15039 10.2046 2.30351
2 9.24581 1.80189 12.2486
2 6.7341 7.783 9.19996
2 5.23278 7.81386 7.30996
2 6.60544 8.91275 6.31935
2 2.31917 6.44363 12.761
2 7.60219 4.19565 4.82525
2 12.0883 4.17555 9.53002
2 1.55844 2.88675 0.484304
2 3.52566 10.0445 2.68793
2 5.07664 4.85954 4.34322
2 5.25695 5.40534 12.4769
2 6.34056 11.1042 3.04522
2 9.44306 8.12837 0.602338
2 7.31203 2.03962 10.6842
2 0.628768 5.10859 7.2894
2 4.36606 5.57359 2.28773
2 3.38491 8.24796 5.33971
2 1.52335 3.05559 7.72708
2 0.53989 10.1845 5.66526
2 3.61756 7.75652 9.87792
2 8.75749 4.11208 12.5411
2 7.87726 9.24929 1.12349
2 6.50869 11.7284 6.53529
2 7.36241 10.2356 8.19176
2 4.5414 11.9011 4.78883
2 2.43932 9.96486 9.6216
2 1.17124 4.32022 2.7136
2 9.02669 3.31932 6.70216
2 10.9495 6.48023 12.5614
2 9.24189 8.46848 8.75031
2 3.44948 2.41053 10.1094
2 10.9589 9.34358 6.79699
2 11.4999 8.45159 12.7636
2 11.9439 9.91365 9.16407
2 11.7837 1.98079 2.74433
2 3.26385 1.20179 7.18785
2 2.95334 5.91389 4.15134
2 1.36909 6.89042 9.34376
2 11.3289 4.1787 1.34319
2 10.8815 4.56214 11.8999
2 1.3023 8.28967 11.3928
2 11.2626 7.65593 2.42892
2 1.89011 0.578274 9.3024
2 1.57467 2.80691 10.6145
2 11.1057 7.1685 8.75615
2 5.04631 9.26496 4.39055
2 2.88017 4.31117 12.5524
2 12.0283 10.0864 2.39329
1 12.2418 5.73722 8.60173
1 9.46226 1.59314 6.75318
1 6.3552 5.28944 11.3823
1 7.35175 10.3528 6.60536
1 8.01691 8.2734 12.0739
1 4.76752 10.8092 3.74448
1 12.2313 3.30918 6.58247
1 3.7878 5.66174 0.751404
1 5.05063 8.16022 5.71053
1 9.21903 4.25322 5.42746
1 1.81785 10.3606 2.5183
1 5.18789 7.406 9.07784
1 8.08266 3.02959 11.706
1 7.48924 10.409 2.25376
1 2.08173 7.61005 6.15647
1 7.75122 8.86466 9.02375
1 10.6275 9.04389 1.54291
1 2.13794 8.25011 10.0201
1 4.81943 6.11875 3.54222
1 11.7673 3.34281 10.9719
1 11.4782 0.330247 3.02704
1 10.9587 8.76314 8.33966
1 10.0795 5.19276 0.727247
1 6.02339 3.37104 4.47799
1 1.36758 4.88111 4.17381
1 4.82521 0.796037 6.30951
1 0.582528 3.20849 1.7931
1 2.67365 1.82392 8.53696
1 0.539696 7.41056 12.2941
1 1.23649 11.0032 8.89952
1 2.91153 2.70576 11.7889
1 10.4797 10.4839 5.58573
96