LAMMPS (2 Aug 2023 - Update 3)
units metal
boundary p p p
atom_style full
pair_style tersoff
neighbor 2.0 bin
neigh_modify delay 1




read_data SiO.data
Reading data file ...
  orthogonal box = (0 0 0) to (12.589463 12.589463 13.222096)
  1 by 1 by 1 MPI processor grid
WARNING: Atom style in data file atom-ID molecule-ID atom-type q x y z differs from currently defined atom style full (../read_data.cpp:621)
  reading atoms ...
  96 atoms
Finding 1-2 1-3 1-4 neighbors ...
  special bond factors lj:    0        0        0       
  special bond factors coul:  0        0        0       
     0 = max # of 1-2 neighbors
     0 = max # of 1-3 neighbors
     0 = max # of 1-4 neighbors
     1 = max # of special neighbors
  special bonds CPU = 0.000 seconds
  read_data CPU = 0.003 seconds
replicate 1 1 1
Replication is creating a 1x1x1 = 1 times larger system...
  orthogonal box = (0 0 0) to (12.589463 12.589463 13.222096)
  1 by 1 by 1 MPI processor grid
  96 atoms
Finding 1-2 1-3 1-4 neighbors ...
  special bond factors lj:    0        0        0       
  special bond factors coul:  0        0        0       
     0 = max # of 1-2 neighbors
     0 = max # of 1-3 neighbors
     0 = max # of 1-4 neighbors
     1 = max # of special neighbors
  special bonds CPU = 0.000 seconds
  replicate CPU = 0.001 seconds

pair_coeff * *  /root/Desktop/host/job1/SiO.tersoff Si O
Reading tersoff potential file /root/Desktop/host/job1/SiO.tersoff with DATE: 2010-08-16



group Si type 1
32 atoms in group Si
group O type 2
64 atoms in group O
#create_bonds many SiO SiO 1 0.5 10

dump dmp all xyz 2000 dump.lammpstrj



variable apot equal pe
# first number: number of steps to get current temp
# second number: calculate average n number of temp read above.
# third number: temp record (this must be larger than the one above )

variable atemp equal temp
fix temp_info all ave/time 10 200 2000 v_atemp file temperature.dat

#The cutoff used for pairwise computation (any pair style) and the
#associated neighbor list is the maximum cutoff that any compute
#can use. Atoms don't know any info about their neighbors
#further away than that.

# compute coord number
compute coor12 Si coord/atom cutoff 2.5 group O
compute coor11 Si coord/atom cutoff 2.5 group Si
compute coor22 O coord/atom cutoff 2.0 group O

compute sumcoor12 all reduce ave c_coor12
compute sumcoor11 all reduce ave c_coor11
compute sumcoor22 all reduce ave c_coor22


fix 12coord all ave/time  10 200 2000 c_sumcoor12 file Si-O_coord_number.dat
fix 11coord all ave/time  10 200 2000  c_sumcoor11 file Si-Si_coord_number.dat
fix 22coord all ave/time  10 200 2000  c_sumcoor22 file O-O_coord_number.dat




# unit cell information
variable avol equal vol
variable alx equal lx
variable aly equal ly
variable alz equal lz
fix cell_info all ave/time 10 200 2000 v_avol v_alx v_aly v_alz file cell_volume.dat


fix potential_info all ave/time 10 200 2000 v_apot file potential-energy.dat
thermo 1000



velocity all create 6000 72631 mom yes rot no dist gaussian
fix npt1 all npt temp 6000 5000 0.1 iso 0 0  1
timestep 0.001
#run 500
run 80000
Neighbor list info ...
  update: every = 1 steps, delay = 1 steps, check = yes
  max neighbors/atom: 2000, page size: 100000
  master list distance cutoff = 4.8
  ghost atom cutoff = 4.8
  binsize = 2.4, bins = 6 6 6
  4 neighbor lists, perpetual/occasional/extra = 1 3 0
  (1) pair tersoff, perpetual
      attributes: full, newton on
      pair build: full/bin
      stencil: full/bin/3d
      bin: standard
  (2) compute coord/atom, occasional, copy from (1)
      attributes: full, newton on
      pair build: copy
      stencil: none
      bin: none
  (3) compute coord/atom, occasional, copy from (1)
      attributes: full, newton on
      pair build: copy
      stencil: none
      bin: none
  (4) compute coord/atom, occasional, copy from (1)
      attributes: full, newton on
      pair build: copy
      stencil: none
      bin: none
Per MPI rank memory allocation (min/avg/max) = 6.021 | 6.021 | 6.021 Mbytes
   Step          Temp          E_pair         E_mol          TotEng         Press          Volume    
         0   6000          -638.06385      0             -564.38556      73800.118      2095.6304    
      1000   6149.4955     -557.92123      0             -482.40718      13426.72       2238.8391    
      2000   5411.5532     -559.79798      0             -493.34566     -2241.6724      2304.6647    
      3000   6460.0675     -564.96784      0             -485.64006      1785.083       2279.868     
      4000   6033.7412     -557.71027      0             -483.61766     -28604.372      2370.8023    
      5000   6048.071      -560.79512      0             -486.52654      16703.443      2320.9551    
      6000   5857.2231     -567.58049      0             -495.65546     -12830.634      2078.6412    
      7000   5685.9557     -550.7569       0             -480.93499      8681.514       2208.8699    
      8000   6562.6819     -539.73615      0             -459.1483      -9122.7849      2272.3478    
      9000   6173.5064     -521.59978      0             -445.79089     -29115.963      2243.1752    
     10000   6111.7621     -530.48818      0             -455.43749     -27886.594      2273.6639    
     11000   5322.2745     -536.85849      0             -471.50248     -17019.771      2394.3541    
     12000   5637.9068     -535.914        0             -466.68211      20584.653      2139.8545    
     13000   5993.3232     -528.91775      0             -455.32146      5463.2616      2158.1571    
     14000   6766.8622     -521.50009      0             -438.40495      25773.591      1836.7846    
     15000   6622.982      -538.40708      0             -457.07876      31577.029      1609.8119    
     16000   6171.2887     -531.21948      0             -455.43782     -2886.5344      1576.0896    
     17000   5926.1764     -530.75187      0             -457.98012      15851.947      1546.1351    
     18000   6923.5533     -527.22539      0             -442.20614     -38711.14       1636.1419    
     19000   5803.1075     -523.85025      0             -452.58975      15331.473      1802.2972    
     20000   6102.2429     -534.42655      0             -459.49276     -16539.012      2048.0922    
     21000   5703.8411     -522.53379      0             -452.49226      30271.745      1726.544     
     22000   5932.9676     -539.2955       0             -466.44035     -516.72068      1793.9922    
     23000   5502.8695     -537.82398      0             -470.25032     -16422.779      1564.6601    
     24000   5616.8146     -533.79497      0             -464.8221      -37965.842      1515.932     
     25000   6448.5347     -536.86211      0             -457.67595      88290.46       1497.7732    
     26000   5899.1495     -551.87273      0             -479.43287      9504.573       1423.5194    
     27000   6013.8094     -537.43208      0             -463.58422     -12202.225      1436.5428    
     28000   5562.1187     -556.02568      0             -487.72445      709.46776      1443.8375    
     29000   6051.8856     -557.36903      0             -483.0536       20397.14       1322.4024    
     30000   6216.5553     -542.93712      0             -466.5996       53884.24       1559.3981    
     31000   5934.2631     -543.22557      0             -470.35452     -22215.084      1561.9561    
     32000   5435.1329     -538.97288      0             -472.231       -8304.289       1541.6089    
     33000   5853.5536     -535.5413       0             -463.66134     -8565.4833      1736.636     
     34000   5644.7018     -528.5267       0             -459.21138     -3057.6197      1596.908     
     35000   6122.9116     -548.11443      0             -472.92683      26977.332      1692.1976    
     36000   5200.4041     -548.93883      0             -485.07936     -32397.568      1892.9145    
     37000   4767.0819     -552.06744      0             -493.52904     -23645.062      1755.8047    
     38000   5273.3411     -544.32575      0             -479.57063      13913.69       1794.7353    
     39000   5467.0391     -540.71669      0             -473.58301      53835.987      1623.2991    
     40000   5241.4963     -539.91431      0             -475.55024      27630.774      1706.2965    
     41000   6049.8455     -538.52951      0             -464.23913      58608.856      1578.6325    
     42000   6101.7328     -531.45331      0             -456.52577      52677.646      1822.9864    
     43000   5681.2611     -537.1118       0             -467.34754      28674.274      1730.3232    
     44000   5164.2587     -547.97383      0             -484.55821     -31137.05       1784.5198    
     45000   5249.2407     -530.16388      0             -465.70471     -7444.7488      1917.0645    
     46000   5157.0835     -548.21209      0             -484.88458     -6160.8195      1782.3077    
     47000   5609.7896     -532.34336      0             -463.45674     -20275.388      1741.7606    
     48000   5683.7547     -541.7873       0             -471.99242     -12207.338      1781.1797    
     49000   5558.4154     -539.43713      0             -471.18138      11375.79       1643.9967    
     50000   5663.3834     -540.30241      0             -470.75768      3911.7296      1622.6847    
     51000   5614.6044     -542.85609      0             -473.91036     -15997.72       1533.2544    
     52000   5979.4264     -526.75214      0             -453.32649     -23796.063      1576.4652    
     53000   5384.9484     -542.15682      0             -476.0312       28553.888      1486.8142    
     54000   6699.8841     -552.28418      0             -470.01152      48406.732      1525.0226    
     55000   5546.608      -544.59921      0             -476.48845     -6686.429       1458.2976    
     56000   5126.645      -557.7447       0             -494.79096     -22152.054      1473.8679    
     57000   5355.453      -546.39841      0             -480.63498     -18995.121      1587.1952    
     58000   5161.0623     -533.4534       0             -470.07703      69737.126      1500.8711    
     59000   5178.021      -549.75818      0             -486.17357      2354.5757      1601.8631    
     60000   4584.7317     -542.44152      0             -486.14233      29673.179      1559.2409    
     61000   4547.5121     -547.80973      0             -491.96759     -16948.749      1578.6885    
     62000   5222.9614     -545.64141      0             -481.50494     -3630.7431      1535.1077    
     63000   5163.4988     -553.2257       0             -489.81941     -12643.933      1505.9609    
     64000   4606.9441     -534.37028      0             -477.79833     -27733.324      1621.8579    
     65000   5135.4615     -546.55394      0             -483.49194     -15693.001      1674.6158    
     66000   5154.7252     -546.5099       0             -483.21135     -1049.2119      1457.7045    
     67000   5026.694      -553.107        0             -491.38064      9107.1708      1601.5669    
     68000   5382.872      -547.28741      0             -481.18729     -28906.493      1569.1141    
     69000   4863.5863     -554.09662      0             -494.37318     -18827.462      1573.9548    
     70000   5616.3661     -543.31229      0             -474.34492      10677.905      1487.9488    
     71000   4936.5735     -545.73516      0             -485.11545      2817.2786      1607.2364    
     72000   5401.4414     -551.32968      0             -485.00153     -23167.051      1463.4437    
     73000   5320.4483     -553.72985      0             -488.39627      42525.354      1427.393     
     74000   4911.716      -553.26979      0             -492.95533      60823.589      1442.9507    
     75000   4729.5269     -552.61976      0             -494.54252      55883.33       1457.8105    
     76000   5847.92       -545.19421      0             -473.38343      6128.8234      1523.6124    
     77000   4743.8779     -556.66114      0             -498.40767      5687.63        1593.3232    
     78000   4931.3554     -550.69054      0             -490.1349      -41229.152      1480.2877    
     79000   5013.654      -550.79724      0             -489.231       -21668.541      1519.5726    
     80000   5651.5385     -552.40114      0             -483.00187     -10390.409      1637.3531    
Loop time of 6.87903 on 1 procs for 80000 steps with 96 atoms

Performance: 1004.793 ns/day, 0.024 hours/ns, 11629.547 timesteps/s, 1.116 Matom-step/s
99.3% CPU use with 1 MPI tasks x no OpenMP threads

MPI task timing breakdown:
Section |  min time  |  avg time  |  max time  |%varavg| %total
---------------------------------------------------------------
Pair    | 5.6741     | 5.6741     | 5.6741     |   0.0 | 82.48
Bond    | 0.0030898  | 0.0030898  | 0.0030898  |   0.0 |  0.04
Neigh   | 0.45482    | 0.45482    | 0.45482    |   0.0 |  6.61
Comm    | 0.21532    | 0.21532    | 0.21532    |   0.0 |  3.13
Output  | 0.011883   | 0.011883   | 0.011883   |   0.0 |  0.17
Modify  | 0.47859    | 0.47859    | 0.47859    |   0.0 |  6.96
Other   |            | 0.04122    |            |       |  0.60

Nlocal:             96 ave          96 max          96 min
Histogram: 1 0 0 0 0 0 0 0 0 0
Nghost:            484 ave         484 max         484 min
Histogram: 1 0 0 0 0 0 0 0 0 0
Neighs:              0 ave           0 max           0 min
Histogram: 1 0 0 0 0 0 0 0 0 0
FullNghs:         2688 ave        2688 max        2688 min
Histogram: 1 0 0 0 0 0 0 0 0 0

Total # of neighbors = 2688
Ave neighs/atom = 28
Ave special neighs/atom = 0
Neighbor list builds = 3746
Dangerous builds = 0

fix npt1 all npt temp 5000 4000 0.1 iso 0 0 1
run 80000
Per MPI rank memory allocation (min/avg/max) = 8.549 | 8.549 | 8.549 Mbytes
   Step          Temp          E_pair         E_mol          TotEng         Press          Volume    
     80000   5651.5385     -552.40114      0             -483.00187     -10390.409      1637.3531    
     81000   4765.29       -553.25026      0             -494.73386      51167.879      1576.3489    
     82000   5024.0819     -556.67421      0             -494.97993     -30203.671      1476.7776    
     83000   4629.4516     -549.22399      0             -492.37565     -24350.823      1535.3799    
     84000   4466.2006     -553.3312       0             -498.48753     -50824.999      1556.2762    
     85000   5238.9415     -544.72231      0             -480.38961     -8395.9056      1539.6323    
     86000   4937.4179     -551.15782      0             -490.52774     -48594.631      1621.9344    
     87000   4310.2215     -561.29465      0             -508.36636     -7343.3808      1405.666     
     88000   5116.2767     -560.90279      0             -498.07638      14488.705      1524.7279    
     89000   5705.1551     -551.66433      0             -481.60666     -25379.829      1634.9104    
     90000   4718.9436     -556.92027      0             -498.97299     -10239.385      1475.8977    
     91000   5302.0306     -555.25071      0             -490.1433       23583.654      1540.962     
     92000   4696.1582     -552.91861      0             -495.25113      16476.365      1545.2704    
     93000   4476.3417     -561.93293      0             -506.96474      73609.469      1459.6231    
     94000   4745.6896     -559.76025      0             -501.48454      56302.173      1504.3874    
     95000   4690.9888     -551.24636      0             -493.64236     -4600.2601      1579.0421    
     96000   4566.9665     -558.77007      0             -502.68903      20994.375      1504.8476    
     97000   4714.5939     -568.30725      0             -510.41338     -9970.7622      1404.9824    
     98000   4788.686      -565.89225      0             -507.08855      59189.032      1367.8506    
     99000   4752.8768     -561.89649      0             -503.53253     -44388.387      1454.5736    
    100000   4862.0255     -570.27204      0             -510.56776      453.72875      1467.1187    
    101000   4889.6706     -564.75119      0             -504.70744     -15927.54       1492.6015    
    102000   4773.2819     -566.30491      0             -507.69038     -13514.17       1466.5277    
    103000   5282.0726     -570.86504      0             -506.0027       41562.881      1441.8016    
    104000   4524.2968     -575.78808      0             -520.23101      36907.259      1427.4633    
    105000   4563.9308     -562.61082      0             -506.56706      21515.034      1403.6557    
    106000   4291.1317     -565.55727      0             -512.8634      -38443.521      1464.5002    
    107000   5253.0905     -560.37765      0             -495.8712      -15076.916      1486.9214    
    108000   4469.8721     -568.30675      0             -513.418       -17743.885      1441.5104    
    109000   4847.7346     -557.51519      0             -497.9864       75312.152      1393.4398    
    110000   4259.5225     -559.50866      0             -507.20295      17120.18       1479.1812    
    111000   4876.0762     -555.45964      0             -495.58282     -30135.581      1476.7905    
    112000   4122.6442     -562.09781      0             -511.47292     -548.80306      1433.057     
    113000   3929.9998     -569.5757       0             -521.31643     -11309.187      1349.2727    
    114000   4388.1253     -570.16642      0             -516.2815      -12182.544      1344.949     
    115000   5955.6123     -571.26953      0             -498.13632      38056.243      1379.8438    
    116000   4491.5957     -571.14415      0             -515.98864     -6939.7332      1394.3154    
    117000   4778.5703     -564.75126      0             -506.07179      4955.0631      1418.7822    
    118000   4179.6239     -567.41807      0             -516.09349     -17342.773      1381.7481    
    119000   5579.8882     -567.73813      0             -499.2187      -9547.5435      1369.0484    
    120000   4736.3763     -562.26059      0             -504.09924      14648.386      1277.4532    
    121000   4556.2419     -565.96147      0             -510.01212      27708.747      1321.4503    
    122000   4001.1766     -571.23731      0             -522.10401     -25230.446      1376.1183    
    123000   4391.5039     -563.43998      0             -509.51357     -7772.0216      1397.1782    
    124000   3917.0966     -569.19412      0             -521.0933       35441.067      1275.2174    
    125000   5018.5043     -570.48414      0             -508.85834     -7960.2106      1363.4114    
    126000   4634.5915     -569.22566      0             -512.3142      -15454.492      1349.1193    
    127000   4587.5035     -560.00818      0             -503.67495      26888.7        1380.2919    
    128000   4210.3294     -564.11998      0             -512.41834     -11050.311      1410.2019    
    129000   4233.8994     -571.45597      0             -519.4649      -17881.902      1405.0402    
    130000   5009.6226     -565.18805      0             -503.67132     -9746.4323      1364.1143    
    131000   4218.6067     -567.74065      0             -515.93736      18603          1413.4707    
    132000   3875.8307     -567.60571      0             -520.01162     -47474.327      1435.9178    
    133000   4593.257      -566.42457      0             -510.02069      63552.336      1272.5895    
    134000   4564.6481     -571.60075      0             -515.54817      24484.896      1292.4535    
    135000   3983.8082     -572.42678      0             -523.50675      52032.343      1374.2511    
    136000   4646.1428     -576.74318      0             -519.68988     -29031.371      1468.1933    
    137000   5051.894      -558.3133       0             -496.27749     -627.82225      1408.1042    
    138000   4094.3541     -566.25194      0             -515.97444     -15800.968      1346.4291    
    139000   3716.2522     -562.17868      0             -516.54417      8897.8752      1290.2284    
    140000   3753.7208     -567.12359      0             -521.02897      5460.3626      1323.1173    
    141000   4385.8032     -559.42429      0             -505.56788     -39710.937      1319.4464    
    142000   4401.4117     -561.40388      0             -507.3558       44060.595      1452.6695    
    143000   3970.1784     -567.90954      0             -519.15688      25985.565      1398.3994    
    144000   4561.7584     -563.35539      0             -507.3383       23744.3        1394.9052    
    145000   4385.0431     -572.88519      0             -519.03811     -20350.4        1354.6919    
    146000   4379.692      -575.55269      0             -521.77133     -10853.53       1491.4243    
    147000   4593.0962     -574.02439      0             -517.62249     -2459.5317      1382.1759    
    148000   4006.5077     -569.64628      0             -520.44751     -33261.336      1426.9669    
    149000   4286.5314     -565.57049      0             -512.93311     -20935.087      1483.6697    
    150000   4063.5273     -566.99727      0             -517.09831     -14349.937      1363.6889    
    151000   4120.4225     -570.14208      0             -519.54447      13263.086      1360.4934    
    152000   3537.144      -568.55631      0             -525.1212      -64516.554      1350.9393    
    153000   4597.8421     -573.63264      0             -517.17246     -4401.5299      1296.5518    
    154000   3640.4737     -572.39489      0             -527.69091      5831.6347      1308.3945    
    155000   4370.2285     -573.5645       0             -519.89934     -2549.6527      1311.1958    
    156000   4381.1501     -569.94397      0             -516.1447      -28392.449      1376.6181    
    157000   4691.8244     -583.1938       0             -525.57954      52248.823      1301.8538    
    158000   3587.8832     -575.53068      0             -531.4725       43918.179      1271.2104    
    159000   3745.5        -579.26281      0             -533.26915      46267.732      1284.2832    
    160000   4103.3476     -572.67555      0             -522.28762     -14705.437      1307.5364    
Loop time of 7.28689 on 1 procs for 80000 steps with 96 atoms

Performance: 948.552 ns/day, 0.025 hours/ns, 10978.615 timesteps/s, 1.054 Matom-step/s
99.2% CPU use with 1 MPI tasks x no OpenMP threads

MPI task timing breakdown:
Section |  min time  |  avg time  |  max time  |%varavg| %total
---------------------------------------------------------------
Pair    | 6.069      | 6.069      | 6.069      |   0.0 | 83.29
Bond    | 0.0033118  | 0.0033118  | 0.0033118  |   0.0 |  0.05
Neigh   | 0.4359     | 0.4359     | 0.4359     |   0.0 |  5.98
Comm    | 0.22352    | 0.22352    | 0.22352    |   0.0 |  3.07
Output  | 0.013693   | 0.013693   | 0.013693   |   0.0 |  0.19
Modify  | 0.498      | 0.498      | 0.498      |   0.0 |  6.83
Other   |            | 0.04343    |            |       |  0.60

Nlocal:             96 ave          96 max          96 min
Histogram: 1 0 0 0 0 0 0 0 0 0
Nghost:            542 ave         542 max         542 min
Histogram: 1 0 0 0 0 0 0 0 0 0
Neighs:              0 ave           0 max           0 min
Histogram: 1 0 0 0 0 0 0 0 0 0
FullNghs:         3234 ave        3234 max        3234 min
Histogram: 1 0 0 0 0 0 0 0 0 0

Total # of neighbors = 3234
Ave neighs/atom = 33.6875
Ave special neighs/atom = 0
Neighbor list builds = 3283
Dangerous builds = 0

fix npt1 all npt temp 4000 4000 0.1 iso 0 0 1
run 80000
Per MPI rank memory allocation (min/avg/max) = 8.549 | 8.549 | 8.549 Mbytes
   Step          Temp          E_pair         E_mol          TotEng         Press          Volume    
    160000   4103.3476     -572.67555      0             -522.28762     -14705.437      1307.5364    
    161000   3407.357      -573.41461      0             -531.57324     -27845.826      1300.404     
    162000   3568.4282     -571.72284      0             -527.90356      50890.271      1239.1385    
    163000   4193.0671     -573.96342      0             -522.47376      47241.22       1170.9332    
    164000   4172.5612     -578.14956      0             -526.9117       10044.072      1301.3695    
    165000   4558.6856     -569.42857      0             -513.44921      4290.8958      1314.5128    
    166000   3716.344      -567.95836      0             -522.32272     -9696.3789      1347.1823    
    167000   3418.5503     -569.42206      0             -527.44324      26756.974      1355.3436    
    168000   4269.4052     -576.20276      0             -523.77569      26597.481      1295.4133    
    169000   4099.9874     -580.10203      0             -529.75535     -29833.784      1259.5704    
    170000   4368.6773     -565.52365      0             -511.87755     -59355.202      1263.0411    
    171000   4078.0294     -578.36047      0             -528.28344     -35175.814      1299.9342    
    172000   3544.2482     -571.88606      0             -528.36371     -66634.752      1350.509     
    173000   3736.0052     -570.61351      0             -524.73643      12190.32       1317.3087    
    174000   4442.1881     -572.64098      0             -518.09218     -49247.216      1366.6246    
    175000   3693.3043     -573.67109      0             -528.31837     -12873.135      1330.0682    
    176000   3665.0671     -569.80216      0             -524.79618     -11888.865      1359.8017    
    177000   3090.878      -582.22747      0             -544.27237     -42796.113      1344.326     
    178000   4035.1645     -574.70765      0             -525.15699     -36638.56       1350.0384    
    179000   3914.703      -579.06324      0             -530.99181     -27337.728      1429.6793    
    180000   4216.8803     -582.96317      0             -531.18109     -3371.7938      1398.8094    
    181000   4061.9542     -581.5084       0             -531.62877     -29002.516      1418.9525    
    182000   3993.1819     -575.22132      0             -526.18619     -16275.577      1423.0764    
    183000   4123.2358     -583.50603      0             -532.87387      25460.565      1457.8021    
    184000   3921.3049     -570.34438      0             -522.19187     -36719.522      1399.7744    
    185000   3531.1981     -568.0782       0             -524.7161      -67469.084      1417.5342    
    186000   4293.8715     -574.44061      0             -521.7131      -31667.627      1410.0407    
    187000   4459.5831     -575.32348      0             -520.56107      42645.305      1386.8023    
    188000   3893.5808     -578.38575      0             -530.57369      821.42211      1336.7343    
    189000   4712.0919     -580.74584      0             -522.8827       13365.569      1325.5315    
    190000   4051.8203     -581.21534      0             -531.46015     -26571.375      1319.7005    
    191000   4405.4454     -573.68466      0             -519.58705      38421.422      1332.4049    
    192000   4336.097      -581.17731      0             -527.93128     -1298.5246      1332.1837    
    193000   3596.5628     -577.25734      0             -533.09258      8127.1111      1412.8807    
    194000   4231.7206     -569.53272      0             -517.56841     -36753.145      1494.3581    
    195000   3699.321      -575.67835      0             -530.25175      11033.19       1457.7699    
    196000   4175.477      -573.47763      0             -522.20397     -41340.834      1393.4579    
    197000   4093.6876     -574.19197      0             -523.92266      5045.2877      1380.7737    
    198000   3565.6558     -577.07233      0             -533.28709      7394.9565      1355.9317    
    199000   4363.0008     -574.7703       0             -521.1939       5150.8923      1411.5526    
    200000   4207.318      -575.2824       0             -523.61774     -53918.629      1435.8721    
    201000   4201.639      -569.2846       0             -517.68968     -46903.769      1514.0119    
    202000   4265.7848     -572.59839      0             -520.21577     -49214.425      1455.6964    
    203000   3928.6054     -577.03407      0             -528.79192     -43150.393      1428.2387    
    204000   3074.6951     -575.29771      0             -537.54134     -8446.9297      1445.4514    
    205000   4385.9316     -583.46969      0             -529.61171     -26506.015      1436.4882    
    206000   4648.9727     -574.00645      0             -516.9184      -16406.402      1402.1674    
    207000   3852.3369     -581.53992      0             -534.23433      16936.183      1354.132     
    208000   4584.8123     -573.06046      0             -516.76028      11486.103      1410.6866    
    209000   3878.7338     -578.1237       0             -530.49396      19766.309      1364.827     
    210000   3936.1291     -573.55057      0             -525.21603      17939.836      1355.7788    
    211000   3699.1635     -576.81024      0             -531.38557      30776.726      1369.4828    
    212000   4551.7455     -576.41782      0             -520.52369     -34855.319      1341.1873    
    213000   3848.3964     -578.08568      0             -530.82847     -3740.3197      1324.8018    
    214000   3646.7498     -578.3209       0             -533.53986      22318.886      1364.8341    
    215000   4154.91       -581.9986       0             -530.97749     -23044.435      1385.0758    
    216000   3845.7121     -574.4472       0             -527.22296     -9864.4262      1427.3856    
    217000   4882.2617     -575.8113       0             -515.85852      44839.118      1400.7479    
    218000   4105.0663     -581.18739      0             -530.77835      11225.553      1339.5354    
    219000   3828.1856     -580.78377      0             -533.77475      24636.097      1308.0384    
    220000   4436.7221     -578.70668      0             -524.225        28746.884      1331.3354    
    221000   3996.5043     -583.02103      0             -533.9451      -26964.804      1389.7607    
    222000   3644.5419     -572.06277      0             -527.30884      45568.431      1346.1483    
    223000   4181.0249     -565.83998      0             -514.49819      53891.049      1427.1161    
    224000   4644.6498     -578.97864      0             -521.94367      53244.481      1344.1887    
    225000   3811.4722     -580.17767      0             -533.37388     -6270.2808      1429.0637    
    226000   3566.862      -575.35999      0             -531.55995      11200.795      1441.8537    
    227000   4182.8005     -570.14973      0             -518.78614     -24771.299      1428.1469    
    228000   3942.1563     -579.82089      0             -531.41234     -12570.827      1438.7019    
    229000   3934.6867     -568.72538      0             -520.40855     -12014.975      1501.1254    
    230000   3856.472      -575.34823      0             -527.99186      26925.716      1440.3712    
    231000   3700.3452     -568.8987       0             -523.45952     -18807.001      1412.5861    
    232000   4796.3552     -569.73942      0             -510.84155      3226.4869      1481.3862    
    233000   3844.519      -571.81853      0             -524.60894      25514.105      1458.6077    
    234000   4043.4941     -579.14083      0             -529.48788      892.77128      1461.191     
    235000   4341.3729     -574.78695      0             -521.47613     -2861.6846      1389.1827    
    236000   4176.1614     -571.75825      0             -520.47618     -16831.276      1385.553     
    237000   3575.2627     -569.41337      0             -525.51016     -21784.722      1456.028     
    238000   3890.5206     -571.07158      0             -523.2971      -14127.817      1387.9793    
    239000   4191.8        -566.61432      0             -515.14022     -19361.822      1448.6573    
    240000   4142.286      -575.65899      0             -524.79291      4553.0072      1475.7972    
Loop time of 7.21457 on 1 procs for 80000 steps with 96 atoms

Performance: 958.062 ns/day, 0.025 hours/ns, 11088.676 timesteps/s, 1.065 Matom-step/s
99.3% CPU use with 1 MPI tasks x no OpenMP threads

MPI task timing breakdown:
Section |  min time  |  avg time  |  max time  |%varavg| %total
---------------------------------------------------------------
Pair    | 6.0255     | 6.0255     | 6.0255     |   0.0 | 83.52
Bond    | 0.0032377  | 0.0032377  | 0.0032377  |   0.0 |  0.04
Neigh   | 0.40886    | 0.40886    | 0.40886    |   0.0 |  5.67
Comm    | 0.22725    | 0.22725    | 0.22725    |   0.0 |  3.15
Output  | 0.012143   | 0.012143   | 0.012143   |   0.0 |  0.17
Modify  | 0.4953     | 0.4953     | 0.4953     |   0.0 |  6.87
Other   |            | 0.04227    |            |       |  0.59

Nlocal:             96 ave          96 max          96 min
Histogram: 1 0 0 0 0 0 0 0 0 0
Nghost:            530 ave         530 max         530 min
Histogram: 1 0 0 0 0 0 0 0 0 0
Neighs:              0 ave           0 max           0 min
Histogram: 1 0 0 0 0 0 0 0 0 0
FullNghs:         2794 ave        2794 max        2794 min
Histogram: 1 0 0 0 0 0 0 0 0 0

Total # of neighbors = 2794
Ave neighs/atom = 29.104167
Ave special neighs/atom = 0
Neighbor list builds = 3075
Dangerous builds = 0

fix npt1 all npt temp 4000 3000 0.1 iso 0 0  1
run 80000
Per MPI rank memory allocation (min/avg/max) = 8.549 | 8.549 | 8.549 Mbytes
   Step          Temp          E_pair         E_mol          TotEng         Press          Volume    
    240000   4142.286      -575.65899      0             -524.79291      4553.0072      1475.7972    
    241000   3611.5439     -573.677        0             -529.32827      18294.919      1408.9812    
    242000   4427.8573     -568.38256      0             -514.00974      11004.059      1470.0823    
    243000   4322.546      -571.28906      0             -518.20943      26287.719      1472.7859    
    244000   3847.3314     -566.60556      0             -519.36143     -18195.927      1477.3555    
    245000   4138.4509     -562.35511      0             -511.53612     -5632.0442      1461.1244    
    246000   3737.7268     -559.88389      0             -513.98567     -5081.2992      1488.017     
    247000   4010.1368     -572.64448      0             -523.40115     -13054.911      1546.1222    
    248000   3502.2589     -569.90409      0             -526.89735      49098.879      1441.9955    
    249000   3297.328      -560.36436      0             -519.87411     -6681.4658      1448.2373    
    250000   4178.2015     -569.72798      0             -518.42086      20193.185      1401.2095    
    251000   3973.6949     -568.51267      0             -519.71683     -10510.854      1418.477     
    252000   4024.4614     -574.95666      0             -525.53742     -5846.9663      1424.7502    
    253000   4171.8547     -564.47736      0             -513.24818     -27934.34       1576.8586    
    254000   3766.9553     -574.63837      0             -528.38124     -4122.6979      1476.8946    
    255000   4503.3338     -573.68026      0             -518.38061      1606.745       1444.0698    
    256000   3839.1476     -572.2396       0             -525.09597     -29200.043      1409.8734    
    257000   3793.7036     -578.28906      0             -531.70347      22716.902      1444.9663    
    258000   3685.1156     -575.05081      0             -529.79865      10385.482      1394.2247    
    259000   3614.5496     -573.66078      0             -529.27515      6696.6704      1458.9595    
    260000   3578.5643     -577.1142       0             -533.17045      7983.1878      1426.6531    
    261000   4498.8789     -582.65563      0             -527.41069      45706.481      1413.2966    
    262000   3756.9827     -574.38898      0             -528.25431      23115.697      1451.5466    
    263000   3405.1237     -586.97028      0             -545.15633      37025.513      1480.368     
    264000   3379.1906     -570.65469      0             -529.1592       26200.397      1446.7393    
    265000   3389.6271     -572.56159      0             -530.93794      30890.022      1454.0879    
    266000   3955.6665     -578.60693      0             -530.03247      18165.133      1462.263     
    267000   3024.2902     -581.04339      0             -543.90597     -4683.0686      1554.6782    
    268000   3517.9426     -577.7546       0             -534.55527     -17797.359      1537.787     
    269000   3856.2139     -579.9524       0             -532.5992       17349.524      1492.0282    
    270000   3252.2602     -579.44782      0             -539.511       -3171.7384      1478.9701    
    271000   3856.4604     -585.1181       0             -537.76187      57712.542      1420.0408    
    272000   3312.4228     -568.46645      0             -527.79084     -4316.7586      1399.6016    
    273000   3664.108      -582.00916      0             -537.01496     -3827.8452      1440.5298    
    274000   3339.2516     -571.59192      0             -530.58687     -4269.9249      1527.4027    
    275000   4682.9663     -576.7042       0             -519.19872     -31452.791      1480.8928    
    276000   3546.5658     -580.22496      0             -536.67415     -26895.579      1470.8475    
    277000   3719.972      -577.57767      0             -531.89748     -939.49416      1412.7053    
    278000   3233.3054     -578.48857      0             -538.78451     -28790.505      1448.0497    
    279000   3450.0278     -578.04457      0             -535.67922     -66244.855      1473.7006    
    280000   3467.8718     -577.5993       0             -535.01483      12942.225      1408.2442    
    281000   3194.662      -577.74609      0             -538.51656     -14757.681      1444.8503    
    282000   3141.7707     -583.70719      0             -545.12714      16933.703      1439.9203    
    283000   3689.4878     -576.67936      0             -531.3735      -22392.27       1487.1602    
    284000   2902.5038     -581.52601      0             -545.88409      4141.2398      1499.5928    
    285000   3039.3739     -573.66999      0             -536.34735     -1772.6454      1496.6092    
    286000   3527.8389     -584.6441       0             -541.32325     -20395.234      1486.3654    
    287000   3366.9643     -581.43531      0             -540.08995      1364.5962      1470.8522    
    288000   3598.292      -584.73589      0             -540.54989     -5561.7829      1491.8135    
    289000   3627.4741     -583.32156      0             -538.77722     -2529.6965      1516.0236    
    290000   4265.1656     -582.48103      0             -530.10602     -34417.77       1507.6299    
    291000   3474.8415     -588.31223      0             -545.64217      837.38167      1471.8713    
    292000   2934.1978     -577.81812      0             -541.78702      13941.474      1525.318     
    293000   3501.5933     -579.26618      0             -536.26762     -60530.505      1525.4906    
    294000   3190.4135     -585.53104      0             -546.35368     -24213.028      1497.3923    
    295000   3304.3538     -580.37502      0             -539.7985      -26248.305      1528.4592    
    296000   3480.8916     -579.41996      0             -536.67561     -55536.671      1560.7743    
    297000   3346.1377     -576.76134      0             -535.67172     -12981.107      1518.119     
    298000   3180.3404     -586.4968       0             -547.44313     -23837.017      1480.1644    
    299000   3270.7657     -582.47241      0             -542.30835     -34429.666      1482.8771    
    300000   3508.2849     -580.84614      0             -537.7654      -28961.22       1501.6519    
    301000   3139.6446     -587.61342      0             -549.05948     -8024.8896      1535.6847    
    302000   3311.8615     -574.36146      0             -533.69275      399.67696      1518.4495    
    303000   3047.4557     -584.51372      0             -547.09184      24204.741      1493.8235    
    304000   3290.8133     -586.7737       0             -546.36346      42482.427      1439.2323    
    305000   2956.5121     -590.84226      0             -554.53714      21652.395      1473.8234    
    306000   3317.8239     -588.28643      0             -547.5445      -2562.6478      1467.3911    
    307000   2880.2405     -586.65038      0             -551.28185     -45665.134      1537.4538    
    308000   2970.0858     -586.79876      0             -550.32696      4169.1621      1551.8783    
    309000   3061.2488     -583.39649      0             -545.80523     -3109.9401      1573.5414    
    310000   3107.588      -581.10534      0             -542.94505      13700.934      1531.492     
    311000   3155.379      -587.11723      0             -548.37008     -4021.0552      1519.5155    
    312000   2876.483      -581.64213      0             -546.31974      2492.5606      1515.2273    
    313000   3069.1545     -583.63397      0             -545.94563     -40769.366      1559.093     
    314000   3038.188      -587.05968      0             -549.7516       16346.911      1525.0099    
    315000   3186.2061     -585.38131      0             -546.25561     -27994.149      1513.4214    
    316000   2761.5558     -586.32063      0             -552.40952     -9509.0271      1504.8411    
    317000   2541.5571     -581.67376      0             -550.46417      4729.8772      1519.7532    
    318000   3228.92       -582.99613      0             -543.34592     -34384.135      1574.7449    
    319000   3333.3339     -586.94514      0             -546.01275     -10489.992      1549.5796    
    320000   2929.1505     -586.18585      0             -550.21673     -17461.279      1554.3761    
Loop time of 6.69523 on 1 procs for 80000 steps with 96 atoms

Performance: 1032.376 ns/day, 0.023 hours/ns, 11948.800 timesteps/s, 1.147 Matom-step/s
99.3% CPU use with 1 MPI tasks x no OpenMP threads

MPI task timing breakdown:
Section |  min time  |  avg time  |  max time  |%varavg| %total
---------------------------------------------------------------
Pair    | 5.5907     | 5.5907     | 5.5907     |   0.0 | 83.50
Bond    | 0.003185   | 0.003185   | 0.003185   |   0.0 |  0.05
Neigh   | 0.35958    | 0.35958    | 0.35958    |   0.0 |  5.37
Comm    | 0.21228    | 0.21228    | 0.21228    |   0.0 |  3.17
Output  | 0.012      | 0.012      | 0.012      |   0.0 |  0.18
Modify  | 0.47796    | 0.47796    | 0.47796    |   0.0 |  7.14
Other   |            | 0.03958    |            |       |  0.59

Nlocal:             96 ave          96 max          96 min
Histogram: 1 0 0 0 0 0 0 0 0 0
Nghost:            506 ave         506 max         506 min
Histogram: 1 0 0 0 0 0 0 0 0 0
Neighs:              0 ave           0 max           0 min
Histogram: 1 0 0 0 0 0 0 0 0 0
FullNghs:         2712 ave        2712 max        2712 min
Histogram: 1 0 0 0 0 0 0 0 0 0

Total # of neighbors = 2712
Ave neighs/atom = 28.25
Ave special neighs/atom = 0
Neighbor list builds = 2794
Dangerous builds = 0

fix npt1 all npt temp 3000 3000 0.1 iso 0 0 1
run 80000
Per MPI rank memory allocation (min/avg/max) = 8.549 | 8.549 | 8.549 Mbytes
   Step          Temp          E_pair         E_mol          TotEng         Press          Volume    
    320000   2929.1505     -586.18585      0             -550.21673     -17461.279      1554.3761    
    321000   3471.7256     -584.74503      0             -542.11323     -36388.485      1510.3644    
    322000   2803.5526     -584.61002      0             -550.1832       5508.273       1506.6173    
    323000   2924.7171     -582.00959      0             -546.0949      -31334.159      1633.9093    
    324000   3149.4941     -584.7169       0             -546.04202     -33841.667      1541.464     
    325000   2449.8647     -592.82502      0             -562.74139      13314.116      1479.8473    
    326000   3141.9515     -587.056        0             -548.47373     -24836.87       1512.8784    
    327000   2728.2489     -589.03166      0             -555.52954      31059.824      1490.2793    
    328000   2778.1952     -587.17524      0             -553.0598       34131.219      1458.21      
    329000   3158.0834     -589.04122      0             -550.26086      3394.6659      1506.7315    
    330000   2854.9799     -593.10543      0             -558.04709     -16096.364      1510.1789    
    331000   2814.1921     -589.14927      0             -554.5918      -15845.365      1586.4142    
    332000   3876.9528     -586.56076      0             -538.95289      9616.9197      1536.1827    
    333000   2985.3081     -586.64399      0             -549.98526     -7590.1539      1545.2575    
    334000   2534.7493     -594.6549       0             -563.5289      -29009.377      1523.664     
    335000   2622.1556     -584.60658      0             -552.40726      33864.171      1430.8025    
    336000   2950.119      -586.95789      0             -550.73128     -17878.421      1503.5574    
    337000   2958.0734     -589.35205      0             -553.02776     -3449.577       1466.3125    
    338000   3420.1956     -590.80914      0             -548.81012      33574.49       1455.316     
    339000   2821.3816     -589.79829      0             -555.15253     -3130.589       1538.973     
    340000   2883.9229     -587.29135      0             -551.8776       28078.049      1454.8279    
    341000   3205.1181     -589.75396      0             -550.39603      15813.437      1470.9023    
    342000   2502.8569     -586.10888      0             -555.37451      8122.1021      1477.0578    
    343000   2711.8909     -588.06402      0             -554.76277     -35509.763      1490.3844    
    344000   3451.5194     -585.08797      0             -542.7043       66312.276      1416.5215    
    345000   3111.6939     -592.81077      0             -554.60006      4353.3914      1501.6613    
    346000   3302.1284     -582.56255      0             -542.01336      37648.606      1469.8569    
    347000   2886.8752     -587.49929      0             -552.04929     -4033.911       1559.9807    
    348000   2976.8108     -581.85963      0             -545.30524     -17112.207      1549.3782    
    349000   3314.3843     -590.35945      0             -549.65976     -2988.7975      1554.3817    
    350000   2460.7334     -586.06648      0             -555.84938     -26218.078      1562.3257    
    351000   2866.3884     -585.65385      0             -550.45542      9020.6757      1546.0662    
    352000   2844.0027     -589.02213      0             -554.0986       25184.052      1528.7396    
    353000   2630.0684     -592.48443      0             -560.18794      27622.686      1551.1278    
    354000   3253.183      -588.04701      0             -548.09886     -11970.878      1510.5547    
    355000   2659.0371     -587.85051      0             -555.1983       8445.1159      1544.719     
    356000   2626.8945     -586.9081       0             -554.65059      16019.267      1501.4623    
    357000   3079.8273     -587.83875      0             -550.01935      8043.4831      1498.0027    
    358000   2764.515      -587.44834      0             -553.50088      10203.648      1525.8324    
    359000   2820.5078     -588.26778      0             -553.63275     -25622.688      1564.2434    
    360000   3584.5359     -587.42598      0             -543.40891     -6254.4748      1484.1201    
    361000   3286.3884     -587.56646      0             -547.21055      15744.42       1481.12      
    362000   2919.8047     -591.1147       0             -555.26033     -5511.8479      1531.8781    
    363000   2814.2257     -583.64587      0             -549.08798      13025.706      1535.6307    
    364000   2866.1232     -584.09916      0             -548.90399     -2299.3066      1556.6692    
    365000   3113.3587     -589.65205      0             -551.4209       20111.024      1525.8411    
    366000   3044.0752     -589.08481      0             -551.70443      37563.338      1506.1119    
    367000   3161.5107     -591.6056       0             -552.78315      12947.048      1464.0851    
    368000   2706.4417     -588.31266      0             -555.07833     -4931.3004      1469.3289    
    369000   3059.0235     -589.85879      0             -552.29485     -27684.047      1529.6064    
    370000   3120.6281     -588.55137      0             -550.23095      4457.5141      1432.6083    
    371000   3001.5298     -593.29581      0             -556.43789      14895.028      1436.1198    
    372000   2999.658      -585.08363      0             -548.24869      18317.106      1417.8326    
    373000   2954.1609     -592.88047      0             -556.60422     -28905.81       1534.538     
    374000   2756.7143     -583.15742      0             -549.30575     -23681.431      1597.8142    
    375000   2502.567      -589.07624      0             -558.34544     -32464.162      1517.6595    
    376000   2937.4321     -584.43794      0             -548.36712     -9780.7159      1461.5743    
    377000   3263.984      -587.1518       0             -547.07101     -8560.8181      1482.1197    
    378000   3063.3112     -589.25286      0             -551.63628      12078.891      1465.4941    
    379000   3086.9123     -584.37371      0             -546.46731      26922.007      1489.9232    
    380000   3551.1385     -584.78822      0             -541.18126     -6182.0779      1548.0987    
    381000   2818.1666     -585.43846      0             -550.83218      2964.9262      1575.5275    
    382000   3216.7286     -582.93316      0             -543.43266      2251.4179      1531.6837    
    383000   3046.7346     -583.98804      0             -546.57501     -7554.1911      1525.0015    
    384000   2561.6213     -587.30171      0             -555.84574     -8796.4856      1521.8563    
    385000   2705.1133     -588.9653       0             -555.74729     -23195.803      1542.7708    
    386000   3358.7071     -586.49273      0             -545.24877      35411.345      1521.755     
    387000   2756.6011     -586.77577      0             -552.9255       17440.419      1548.064     
    388000   3153.9772     -582.27167      0             -543.54173     -323.87746      1537.5652    
    389000   3151.2738     -592.16003      0             -553.46329      13684.211      1550.7025    
    390000   3034.1339     -587.6237       0             -550.3654      -36101.159      1564.9953    
    391000   3022.6458     -588.68164      0             -551.56441     -25220.121      1580.2061    
    392000   2919.2239     -589.50608      0             -553.65885     -38645.768      1577.2749    
    393000   3404.7597     -592.25783      0             -550.44836      3832.6475      1537.8021    
    394000   3620.8524     -590.38531      0             -545.92228      37273.355      1468.3253    
    395000   2872.0928     -588.88971      0             -553.62123     -1923.0549      1488.9769    
    396000   2853.189      -587.2524       0             -552.21605     -13135.726      1530.717     
    397000   3169.5997     -590.17069      0             -551.24891     -29073.166      1543.2623    
    398000   3184.8661     -582.3872       0             -543.27796     -53323.08       1567.1272    
    399000   2956.4505     -582.41881      0             -546.11445      4516.8298      1531.3291    
    400000   3294.3619     -584.97353      0             -544.51971      13693.796      1458.6724    
Loop time of 6.46181 on 1 procs for 80000 steps with 96 atoms

Performance: 1069.670 ns/day, 0.022 hours/ns, 12380.440 timesteps/s, 1.189 Matom-step/s
99.3% CPU use with 1 MPI tasks x no OpenMP threads

MPI task timing breakdown:
Section |  min time  |  avg time  |  max time  |%varavg| %total
---------------------------------------------------------------
Pair    | 5.3911     | 5.3911     | 5.3911     |   0.0 | 83.43
Bond    | 0.0031415  | 0.0031415  | 0.0031415  |   0.0 |  0.05
Neigh   | 0.32871    | 0.32871    | 0.32871    |   0.0 |  5.09
Comm    | 0.21134    | 0.21134    | 0.21134    |   0.0 |  3.27
Output  | 0.011943   | 0.011943   | 0.011943   |   0.0 |  0.18
Modify  | 0.47589    | 0.47589    | 0.47589    |   0.0 |  7.36
Other   |            | 0.03965    |            |       |  0.61

Nlocal:             96 ave          96 max          96 min
Histogram: 1 0 0 0 0 0 0 0 0 0
Nghost:            522 ave         522 max         522 min
Histogram: 1 0 0 0 0 0 0 0 0 0
Neighs:              0 ave           0 max           0 min
Histogram: 1 0 0 0 0 0 0 0 0 0
FullNghs:         2844 ave        2844 max        2844 min
Histogram: 1 0 0 0 0 0 0 0 0 0

Total # of neighbors = 2844
Ave neighs/atom = 29.625
Ave special neighs/atom = 0
Neighbor list builds = 2547
Dangerous builds = 0

fix npt1 all npt temp 3000 2000 0.1 iso 0 0 1
run 80000
Per MPI rank memory allocation (min/avg/max) = 8.549 | 8.549 | 8.549 Mbytes
   Step          Temp          E_pair         E_mol          TotEng         Press          Volume    
    400000   3294.3619     -584.97353      0             -544.51971      13693.796      1458.6724    
    401000   2902.9113     -586.3851       0             -550.73818      21850.361      1467.7525    
    402000   2956.881      -584.11166      0             -547.80201      46985.234      1472.228     
    403000   3106.6512     -591.80171      0             -553.65292      2578.9261      1518.5897    
    404000   3219.172      -587.83306      0             -548.30255      22144.956      1545.9474    
    405000   3024.633      -582.84755      0             -545.70592      36992.408      1431.8117    
    406000   3012.1625     -594.67707      0             -557.68858      11242.007      1507.2065    
    407000   3354.63       -591.0838       0             -549.8899       42754.328      1491.536     
    408000   2783.8511     -593.82959      0             -559.64469      26433.681      1510.5945    
    409000   2869.2038     -588.49723      0             -553.26423      1287.9642      1527.3864    
    410000   3332.3579     -587.80923      0             -546.88883      41336.378      1508.6731    
    411000   2909.832      -585.95722      0             -550.22532     -6333.3383      1514.3966    
    412000   2680.1338     -594.42496      0             -561.51369      1195.3691      1492.0264    
    413000   2826.2179     -585.79591      0             -551.09076     -6657.4204      1544.2451    
    414000   2621.7312     -588.51289      0             -556.31878     -1473.8592      1524.9972    
    415000   2883.6772     -586.58968      0             -551.17895      44064.447      1460.1838    
    416000   3069.6064     -590.0558       0             -552.36191      34413.531      1514.948     
    417000   2583.5777     -590.08669      0             -558.36109     -56790.08       1496.1894    
    418000   2515.5042     -590.64739      0             -559.75772      2402.3802      1517.3973    
    419000   3086.8369     -592.5292       0             -554.62373      18613.561      1535.0852    
    420000   3132.2753     -586.53279      0             -548.06935      21892.724      1536.9707    
    421000   2551.3505     -591.27955      0             -559.94969     -7124.411       1513.0261    
    422000   2949.518      -587.17638      0             -550.95714     -1877.2714      1508.5867    
    423000   2835.907      -592.59031      0             -557.76618      4091.3998      1524.8322    
    424000   2993.1086     -584.88298      0             -548.12846      27520.648      1515.8311    
    425000   2457.0194     -591.90106      0             -561.72956     -30268.737      1513.3477    
    426000   2471.2098     -593.29287      0             -562.94712      12083.086      1424.1404    
    427000   2627.6607     -590.1969       0             -557.92998      23159.119      1422.9256    
    428000   2562.1513     -594.82334      0             -563.36085      27453.596      1422.8062    
    429000   2814.28       -590.89986      0             -556.34131     -8520.2181      1456.819     
    430000   2609.9257     -592.85317      0             -560.80403     -371.0093       1453.7662    
    431000   2633.9587     -592.80115      0             -560.45689     -4114.7247      1441.2832    
    432000   2373.7346     -596.02088      0             -566.8721       363.92559      1437.3215    
    433000   2803.8979     -589.69061      0             -555.25955      32767.346      1349.1884    
    434000   2287.205      -591.34898      0             -563.26275     -16774.908      1434.7488    
    435000   2289.7043     -586.96542      0             -558.84851     -19771.351      1435.554     
    436000   2546.1685     -592.33113      0             -561.06491      498.80004      1486.9437    
    437000   2465.2279     -592.46411      0             -562.19182     -16274.346      1487.6595    
    438000   2506.2195     -592.42167      0             -561.64601      30482.93       1471.0563    
    439000   2255.01       -594.08831      0             -566.39743      24285.637      1481.2573    
    440000   2302.2849     -593.23105      0             -564.95965      17081.636      1481.0922    
    441000   2583.3296     -591.20082      0             -559.47827      5934.7724      1447.2362    
    442000   2293.6316     -596.43704      0             -568.2719       32862.317      1472.3466    
    443000   2413.1052     -594.13559      0             -564.50335      26953.584      1429.0117    
    444000   2259.4057     -589.30818      0             -561.56332      14680.889      1461.9353    
    445000   2300.4248     -594.49438      0             -566.24582     -10302.835      1472.5811    
    446000   2158.1404     -593.76536      0             -567.26401     -2518.8299      1473.4909    
    447000   2855.5522     -596.26803      0             -561.20266      17221.434      1456.1371    
    448000   2381.5967     -596.24095      0             -566.99562      16990.431      1446.6527    
    449000   2293.9466     -596.41122      0             -568.24221      14116.01       1488.9941    
    450000   2529.6994     -590.34221      0             -559.27823      13186.797      1480.1539    
    451000   2206.3146     -598.20692      0             -571.11401     -20638.343      1505.9315    
    452000   2621.7546     -592.58111      0             -560.38671      12474.442      1502.0194    
    453000   2604.836      -599.72163      0             -567.73499      20112.589      1464.6067    
    454000   2392.5418     -593.70111      0             -564.32138      23508.555      1498.5709    
    455000   2093.5283     -595.00738      0             -569.29945      10562.886      1489.7048    
    456000   2256.407      -593.35289      0             -565.64486     -18171.923      1488.8722    
    457000   1953.6522     -598.75026      0             -574.75997      16343.679      1512.1938    
    458000   2348.0279     -595.94131      0             -567.1082      -45939.894      1526.5271    
    459000   2245.7808     -598.11932      0             -570.54177      2979.0809      1550.5068    
    460000   2081.0165     -594.9739       0             -569.41962     -8913.1219      1463.9045    
    461000   2236.873      -594.77078      0             -567.30262     -14365.766      1528.2832    
    462000   2204.9036     -599.06248      0             -571.98689      25355.319      1498.0645    
    463000   2795.3777     -598.18758      0             -563.86114     -17945.4        1508.1298    
    464000   2329.2927     -600.46442      0             -571.86137      7625.5694      1491.9816    
    465000   2274.8204     -595.5769       0             -567.64275     -14742.29       1508.0652    
    466000   2075.0398     -595.95169      0             -570.47079      31357.441      1486.8202    
    467000   2000.2088     -601.55205      0             -576.99006     -16709.489      1463.36      
    468000   2187.402      -596.17387      0             -569.3132       59784.889      1443.2613    
    469000   2092.881      -601.29124      0             -575.59125      17626.777      1467.6736    
    470000   2200.2786     -597.58548      0             -570.56669     -10638.557      1467.373     
    471000   2071.3484     -602.67893      0             -577.24336      21452.186      1457.4434    
    472000   2257.1309     -596.44589      0             -568.72897     -3110.4633      1499.5536    
    473000   1931.8072     -598.58049      0             -574.85845      3514.7045      1464.4442    
    474000   2487.7654     -597.46225      0             -566.91321      13786.708      1445.7045    
    475000   2122.2084     -601.0619       0             -575.00179     -6563.4247      1427.6618    
    476000   1843.0575     -599.53309      0             -576.90087      38516.608      1425.0452    
    477000   2103.962      -594.3828       0             -568.54675     -5322.6679      1478.5034    
    478000   1957.93       -598.69392      0             -574.6511       27162.56       1501.3283    
    479000   1887.9864     -599.24802      0             -576.06409     -9502.2802      1476.0832    
    480000   1898.7313     -597.76981      0             -574.45393      8856.1758      1472.0945    
Loop time of 6.34531 on 1 procs for 80000 steps with 96 atoms

Performance: 1089.308 ns/day, 0.022 hours/ns, 12607.731 timesteps/s, 1.210 Matom-step/s
99.2% CPU use with 1 MPI tasks x no OpenMP threads

MPI task timing breakdown:
Section |  min time  |  avg time  |  max time  |%varavg| %total
---------------------------------------------------------------
Pair    | 5.3184     | 5.3184     | 5.3184     |   0.0 | 83.82
Bond    | 0.0031026  | 0.0031026  | 0.0031026  |   0.0 |  0.05
Neigh   | 0.28519    | 0.28519    | 0.28519    |   0.0 |  4.49
Comm    | 0.20879    | 0.20879    | 0.20879    |   0.0 |  3.29
Output  | 0.012714   | 0.012714   | 0.012714   |   0.0 |  0.20
Modify  | 0.47858    | 0.47858    | 0.47858    |   0.0 |  7.54
Other   |            | 0.03849    |            |       |  0.61

Nlocal:             96 ave          96 max          96 min
Histogram: 1 0 0 0 0 0 0 0 0 0
Nghost:            513 ave         513 max         513 min
Histogram: 1 0 0 0 0 0 0 0 0 0
Neighs:              0 ave           0 max           0 min
Histogram: 1 0 0 0 0 0 0 0 0 0
FullNghs:         2818 ave        2818 max        2818 min
Histogram: 1 0 0 0 0 0 0 0 0 0

Total # of neighbors = 2818
Ave neighs/atom = 29.354167
Ave special neighs/atom = 0
Neighbor list builds = 2197
Dangerous builds = 0

fix npt1 all npt temp 2000 2000 0.1 iso 0 0 1
run 80000
Per MPI rank memory allocation (min/avg/max) = 8.549 | 8.549 | 8.549 Mbytes
   Step          Temp          E_pair         E_mol          TotEng         Press          Volume    
    480000   1898.7313     -597.76981      0             -574.45393      8856.1758      1472.0945    
    481000   1843.9713     -601.26456      0             -578.62112     -15365.358      1505.1768    
    482000   2182.3966     -596.17309      0             -569.37388     -2323.9963      1511.329     
    483000   1906.6705     -599.60341      0             -576.19004      5301.3358      1452.6902    
    484000   1943.0016     -600.71246      0             -576.85296      3222.8849      1436.7726    
    485000   1923.4089     -597.52596      0             -573.90705     -1953.4596      1454.0586    
    486000   1722.5314     -601.27405      0             -580.12186      6524.6627      1491.0367    
    487000   1950.0239     -599.27911      0             -575.33337     -2193.1637      1521.8805    
    488000   1623.6216     -600.28021      0             -580.3426       4514.0138      1523.3743    
    489000   2127.4186     -603.41198      0             -577.28789     -1850.7781      1449.6173    
    490000   2294.7234     -602.53444      0             -574.35589      3319.3449      1458.2105    
    491000   1599.4126     -604.23142      0             -584.59109     -9656.9489      1496.6201    
    492000   1796.1496     -596.49331      0             -574.4371      -10868.507      1472.9476    
    493000   2032.9903     -606.30506      0             -581.34052      17001.493      1430.7616    
    494000   2030.8659     -601.63026      0             -576.69181      2962.5699      1413.6384    
    495000   2151.1799     -602.93092      0             -576.51504      15022.139      1464.6503    
    496000   1876.2596     -598.10265      0             -575.06271     -878.52982      1495.2652    
    497000   1961.2416     -603.31896      0             -579.23548     -25758.415      1526.1014    
    498000   2054.359      -598.42123      0             -573.19429     -19223.235      1518.5403    
    499000   2105.3471     -603.58703      0             -577.73397      29925.568      1440.8617    
    500000   2339.4056     -602.62226      0             -573.89503      41349.182      1439.9548    
    501000   2206.7918     -598.05945      0             -570.96068     -3359.6204      1456.8827    
    502000   2064.1217     -598.85863      0             -573.5118       15267.697      1474.7537    
    503000   1578.4948     -596.18485      0             -576.80138     -20688.95       1508.9772    
    504000   1866.4417     -601.40714      0             -578.48777     -19031.18       1513.1886    
    505000   2027.7226     -597.39622      0             -572.49637      30155.643      1517.2346    
    506000   1856.9756     -598.93383      0             -576.1307       14243.424      1464.8348    
    507000   2072.218      -600.5615       0             -575.11526      6563.0761      1433.6374    
    508000   2166.295      -600.24695      0             -573.64547     -8973.2903      1463.4306    
    509000   1870.277      -596.96624      0             -573.99978      14410.602      1496.0457    
    510000   1752.908      -601.57283      0             -580.04762     -12559.353      1567.9058    
    511000   1952.3994     -597.53284      0             -573.55793      1595.4877      1493.5835    
    512000   2074.7451     -601.20145      0             -575.72417      41213.034      1462.9694    
    513000   2150.9305     -602.611        0             -576.19819      9763.72        1451.8803    
    514000   2142.9245     -597.8752       0             -571.5607       14757.528      1543.039     
    515000   1898.5799     -601.80008      0             -578.48607      10223.998      1493.2185    
    516000   2340.8128     -599.72167      0             -570.97716      13869.927      1452.0456    
    517000   1952.9217     -599.2261       0             -575.24478      12250.881      1449.7042    
    518000   2160.1142     -599.23672      0             -572.71114     -26023.51       1556.1588    
    519000   1901.1648     -595.21192      0             -571.86616     -15318.309      1533.942     
    520000   1809.4785     -599.04334      0             -576.82346     -18333.95       1529.9479    
    521000   2084.0593     -600.94485      0             -575.3532      -1009.6815      1547.8347    
    522000   1848.2001     -596.40146      0             -573.70609      7677.0372      1576.8415    
    523000   2351.5907     -597.23501      0             -568.35815      26976.682      1489.3321    
    524000   1779.8055     -597.92268      0             -576.06718     -8689.8202      1490.0133    
    525000   1970.8444     -598.24178      0             -574.04037      1780.5116      1524.1794    
    526000   2180.4028     -597.65309      0             -570.87836      3369.788       1531.1229    
    527000   2178.6905     -600.95525      0             -574.20155     -5429.5362      1581.9136    
    528000   2088.3402     -598.72856      0             -573.08434     -9993.0594      1538.0652    
    529000   1852.0256     -600.39872      0             -577.65638     -1705.2472      1518.5977    
    530000   2230.6428     -601.7203       0             -574.32865     -15026.145      1451.709     
    531000   2026.3796     -595.42914      0             -570.54578     -8376.1311      1443.8035    
    532000   2010.5676     -598.20834      0             -573.51915     -2320.4766      1497.7842    
    533000   2207.242      -599.99217      0             -572.88787     -19772.694      1527.5683    
    534000   1882.087      -600.99605      0             -577.88456     -8423.8669      1534.9504    
    535000   1967.7758     -598.14439      0             -573.98067      10747.041      1501.4614    
    536000   1850.0115     -598.65295      0             -575.93534      14613.228      1480.2313    
    537000   2131.5498     -602.24675      0             -576.07192     -10588.902      1492.1354    
    538000   1887.888      -602.92736      0             -579.74463      19277.741      1518.0792    
    539000   1859.3866     -599.52659      0             -576.69386     -11405.354      1484.6242    
    540000   1924.218      -599.26309      0             -575.63425      11005.512      1436.8746    
    541000   1988.5526     -601.75053      0             -577.33167      8973.8713      1426.9022    
    542000   2073.8858     -600.83508      0             -575.36835      11279.973      1460.815     
    543000   1901.6698     -598.99515      0             -575.64319     -3165.0442      1476.2905    
    544000   1679.6401     -602.23134      0             -581.60584     -2853.2812      1491.3824    
    545000   1758.3157     -596.44135      0             -574.84973      5419.5259      1441.6959    
    546000   1917.0094     -599.70104      0             -576.16071     -13451.864      1480.5133    
    547000   2156.7248     -602.74178      0             -576.25781      11177.83       1464.0006    
    548000   1930.4531     -601.48949      0             -577.78408     -15685.473      1471.6283    
    549000   2378.1321     -599.96735      0             -570.76456      17115.043      1472.0551    
    550000   1963.0121     -598.93977      0             -574.83454     -24466.69       1534.562     
    551000   1991.3464     -599.81876      0             -575.3656       6414.6183      1483.6964    
    552000   2199.3001     -600.17305      0             -573.16627      15783.591      1456.4942    
    553000   1774.2039     -602.96767      0             -581.18096      25598.933      1419.2035    
    554000   2112.2418     -601.16945      0             -575.23172      24270.933      1431.8038    
    555000   2031.9603     -599.17256      0             -574.22067     -4567.6164      1481.1899    
    556000   2113.6538     -601.12592      0             -575.17086     -20329.42       1538.9937    
    557000   1733.764      -602.76447      0             -581.47434     -19404.438      1490.0522    
    558000   1859.8012     -599.18018      0             -576.34236     -16713.858      1498.632     
    559000   2024.0782     -599.28081      0             -574.42571     -4294.5844      1478.5468    
    560000   1572.7196     -603.67903      0             -584.36649     -13072.547      1463.3851    
Loop time of 6.25108 on 1 procs for 80000 steps with 96 atoms

Performance: 1105.729 ns/day, 0.022 hours/ns, 12797.794 timesteps/s, 1.229 Matom-step/s
99.1% CPU use with 1 MPI tasks x no OpenMP threads

MPI task timing breakdown:
Section |  min time  |  avg time  |  max time  |%varavg| %total
---------------------------------------------------------------
Pair    | 5.2779     | 5.2779     | 5.2779     |   0.0 | 84.43
Bond    | 0.0030989  | 0.0030989  | 0.0030989  |   0.0 |  0.05
Neigh   | 0.24218    | 0.24218    | 0.24218    |   0.0 |  3.87
Comm    | 0.20431    | 0.20431    | 0.20431    |   0.0 |  3.27
Output  | 0.011385   | 0.011385   | 0.011385   |   0.0 |  0.18
Modify  | 0.47438    | 0.47438    | 0.47438    |   0.0 |  7.59
Other   |            | 0.03785    |            |       |  0.61

Nlocal:             96 ave          96 max          96 min
Histogram: 1 0 0 0 0 0 0 0 0 0
Nghost:            518 ave         518 max         518 min
Histogram: 1 0 0 0 0 0 0 0 0 0
Neighs:              0 ave           0 max           0 min
Histogram: 1 0 0 0 0 0 0 0 0 0
FullNghs:         2830 ave        2830 max        2830 min
Histogram: 1 0 0 0 0 0 0 0 0 0

Total # of neighbors = 2830
Ave neighs/atom = 29.479167
Ave special neighs/atom = 0
Neighbor list builds = 1892
Dangerous builds = 0

fix npt1 all npt temp 2000 1000 0.1 iso 0 0 1
run 80000
Per MPI rank memory allocation (min/avg/max) = 8.549 | 8.549 | 8.549 Mbytes
   Step          Temp          E_pair         E_mol          TotEng         Press          Volume    
    560000   1572.7196     -603.67903      0             -584.36649     -13072.547      1463.3851    
    561000   1897.9312     -598.1665       0             -574.86045      23191.109      1441.3583    
    562000   1952.3774     -599.86864      0             -575.894       -12279.837      1512.9554    
    563000   1775.9124     -600.49557      0             -578.68788     -13437.558      1495.1947    
    564000   1875.5481     -603.4508       0             -580.4196       16765.958      1428.0299    
    565000   1814.7598     -600.4531       0             -578.16837     -204.47467      1423.9091    
    566000   1805.3211     -603.47515      0             -581.30632     -12708.521      1526.0937    
    567000   2380.8243     -603.20643      0             -573.97059     -3.0122064      1493.0217    
    568000   2026.7852     -601.44688      0             -576.55854      8668.4479      1451.0156    
    569000   1851.1531     -606.17284      0             -583.44121      36099.133      1449.4305    
    570000   1745.4418     -600.20597      0             -578.77245     -19112.061      1435.9461    
    571000   1820.6184     -603.7731       0             -581.41643      8342.4745      1456.2305    
    572000   2055.1999     -601.72897      0             -576.4917       10387.626      1514.7345    
    573000   1747.8704     -602.71134      0             -581.248       -16529.048      1512.6208    
    574000   1633.9755     -604.34153      0             -584.27678     -34240.527      1485.1492    
    575000   1965.6826     -603.36642      0             -579.2284      -19698.2        1451.4633    
    576000   1637.47       -603.02031      0             -582.91264      23343.84       1438.0766    
    577000   1846.0812     -604.78014      0             -582.11079     -3725.855       1482.2573    
    578000   1914.1928     -604.04082      0             -580.53508     -6207.6166      1468.1717    
    579000   1570.0631     -605.17771      0             -585.89778     -5687.7852      1499.3537    
    580000   1882.3696     -601.93465      0             -578.81969     -15009.345      1514.1846    
    581000   1658.5258     -600.19262      0             -579.8264      -38023.411      1521.278     
    582000   1847.3508     -603.77641      0             -581.09147      48237.496      1417.5836    
    583000   1619.3856     -607.21805      0             -587.33246      21524.945      1407.5953    
    584000   1933.2115     -603.18606      0             -579.44677      2144.9583      1458.942     
    585000   1645.6349     -605.32409      0             -585.11617      42349.451      1431.8502    
    586000   1834.0678     -606.72411      0             -584.20229      11181.667      1452.1675    
    587000   1689.999      -605.13909      0             -584.38638     -6432.5442      1513.3223    
    588000   1825.8026     -603.85294      0             -581.43261      13600.931      1454.9508    
    589000   1383.7685     -603.15878      0             -586.1665      -14009.656      1423.5416    
    590000   1684.9704     -607.08269      0             -586.39173      6028.0964      1436.7865    
    591000   1702.1261     -604.98643      0             -584.08481     -12781.493      1481.2488    
    592000   1545.1389     -607.76165      0             -588.78778      1018.5632      1488.9868    
    593000   1698.8753     -606.38095      0             -585.51925     -17873.857      1513.0728    
    594000   1435.4805     -604.48632      0             -586.85903     -6923.2923      1469.1047    
    595000   1374.9775     -607.60774      0             -590.72341     -720.13269      1473.0992    
    596000   1474.734      -606.83206      0             -588.72275      18539.988      1468.0225    
    597000   1533.364      -603.24594      0             -584.41667     -5521.7155      1458.1453    
    598000   1552.7347     -607.4166       0             -588.34946     -548.23769      1456.8967    
    599000   1249.551      -608.82061      0             -593.47648      5062.5373      1470.9574    
    600000   1747.7476     -607.96723      0             -586.50539      13864.388      1475.405     
    601000   1370.0438     -603.26925      0             -586.44551     -10391.871      1466.7862    
    602000   1306.1617     -607.74205      0             -591.70275      28827.098      1401.1663    
    603000   1420.5728     -610.83774      0             -593.39351     -12914.206      1457.5376    
    604000   1380.4508     -608.58589      0             -591.63434      5151.7948      1419.2441    
    605000   1304.2401     -609.83835      0             -593.82265     -17871.18       1426.4197    
    606000   1227.3838     -606.47296      0             -591.40104     -1292.8357      1412.4691    
    607000   1419.3099     -611.559        0             -594.13028     -4198.787       1406.0457    
    608000   1392.2352     -607.33317      0             -590.23692      30011.451      1410.7814    
    609000   1430.1484     -610.16256      0             -592.60075     -11094.975      1402.2557    
    610000   1299.0568     -611.39206      0             -595.44001      16237.539      1387.3546    
    611000   1406.3475     -610.23776      0             -592.96821     -3627.704       1430.5847    
    612000   1598.3793     -608.76213      0             -589.13449     -33488.544      1438.4484    
    613000   1251.3782     -610.58793      0             -595.22136     -15590.443      1436.7352    
    614000   1332.7279     -609.0731       0             -592.70758     -25749.432      1418.1896    
    615000   1303.8112     -608.85109      0             -592.84066     -4757.6134      1398.3669    
    616000   1339.8289     -611.74172      0             -595.28901      19570.006      1413.3518    
    617000   1381.1282     -609.19927      0             -592.23941     -24467.973      1486.2016    
    618000   1299.2202     -610.74417      0             -594.79012     -2705.3909      1409.0816    
    619000   1334.52       -611.64128      0             -595.25376      4053.9572      1419.0257    
    620000   958.8096      -611.19808      0             -599.42417     -496.87861      1421.0637    
    621000   1094.6241     -611.13253      0             -597.69086     -20232.935      1433.5931    
    622000   1203.0505     -613.11526      0             -598.34214     -2495.6056      1398.5895    
    623000   1110.2272     -612.27472      0             -598.64145     -7939.5226      1400.6272    
    624000   1118.0229     -611.15895      0             -597.42995     -13949.232      1422.0511    
    625000   1230.4078     -612.30694      0             -597.19788     -16629.2        1458.0249    
    626000   1009.7518     -612.85877      0             -600.4593      -6026.4087      1412.4772    
    627000   1307.284      -612.35752      0             -596.30445     -6837.3837      1396.857     
    628000   1096.2778     -611.15151      0             -597.68953     -10560.022      1414.1487    
    629000   1168.1933     -612.34846      0             -598.00338      19649.323      1392.1058    
    630000   952.06805     -614.17624      0             -602.48512      3985.287       1406.2651    
    631000   1069.748      -612.73481      0             -599.59861     -6115.4789      1410.5177    
[...]
Histogram: 1 0 0 0 0 0 0 0 0 0
Neighs:              0 ave           0 max           0 min
Histogram: 1 0 0 0 0 0 0 0 0 0
FullNghs:         2916 ave        2916 max        2916 min
Histogram: 1 0 0 0 0 0 0 0 0 0

Total # of neighbors = 2916
Ave neighs/atom = 30.375
Ave special neighs/atom = 0
Neighbor list builds = 166
Dangerous builds = 0


fix npt1 all npt temp 500 10 0.1 iso 0 0 1
run 80000
Per MPI rank memory allocation (min/avg/max) = 8.549 | 8.549 | 8.549 Mbytes
   Step          Temp          E_pair         E_mol          TotEng         Press          Volume    
    880000   469.83822     -620.92886      0             -615.15938      6562.3631      1390.4433    
    881000   490.82614     -621.85928      0             -615.83207     -6295.4095      1400.0307    
    882000   506.95762     -622.03557      0             -615.81028      11792.963      1370.4063    
    883000   473.63874     -620.301        0             -614.48485      8172.1208      1385.1272    
    884000   411.44634     -621.66383      0             -616.61139     -15597.517      1392.9971    
    885000   526.30552     -621.23243      0             -614.76955      11867.674      1367.8652    
    886000   461.48692     -621.92073      0             -616.2538       1093.5028      1377.4853    
    887000   415.55462     -622.40641      0             -617.30352      5437.2964      1380.7188    
    888000   418.44683     -621.60419      0             -616.46578     -5537.1159      1380.4661    
    889000   384.07001     -622.82979      0             -618.11352     -4418.2141      1374.6442    
    890000   405.8712      -621.961        0             -616.97701      2374.237       1395.3376    
    891000   529.12038     -622.09735      0             -615.59991     -8771.1995      1390.7624    
    892000   370.1951      -622.04157      0             -617.49568     -8759.1464      1395.3978    
    893000   468.12146     -622.47293      0             -616.72454     -66.098909      1373.5649    
    894000   411.48375     -622.25436      0             -617.20146     -228.28233      1369.9356    
    895000   357.01718     -622.95097      0             -618.5669       13763.8        1380.8092    
    896000   386.21389     -622.18096      0             -617.43836     -13470.548      1391.2702    
    897000   363.65558     -622.52588      0             -618.06029     -9096.4113      1378.2472    
    898000   400.45783     -622.58979      0             -617.67228      5630.1814      1383.4685    
    899000   359.75087     -622.3937       0             -617.97607     -12003.465      1405.4453    
    900000   320.56546     -623.15186      0             -619.21541     -10024.459      1400.2445    
    901000   351.42024     -622.84921      0             -618.53387     -18928.405      1401.5531    
    902000   359.6952      -623.21359      0             -618.79664      13933.708      1365.2365    
    903000   305.42006     -623.43601      0             -619.68554      6138.3377      1381.0313    
    904000   323.64783     -622.69405      0             -618.71975     -11806.523      1397.8434    
    905000   325.65268     -623.63987      0             -619.64094     -12924.797      1392.7335    
    906000   340.41178     -622.98001      0             -618.79985      1924.6224      1382.1224    
    907000   326.69315     -623.94854      0             -619.93684     -266.79574      1370.1904    
    908000   375.35723     -623.4657       0             -618.85642     -3969.8968      1389.6252    
    909000   344.22415     -623.69738      0             -619.47041     -11913.339      1380.4958    
    910000   292.19144     -624.477        0             -620.88897      8607.1313      1370.6645    
    911000   303.17202     -623.39356      0             -619.6707      -12496.913      1391.7013    
    912000   299.70434     -624.18131      0             -620.50103     -713.33751      1384.4909    
    913000   297.05279     -623.90435      0             -620.25663      1.6633223      1389.7479    
    914000   273.35345     -624.60865      0             -621.25195     -2345.733       1379.3251    
    915000   288.30245     -624.24862      0             -620.70835     -262.73308      1379.9359    
    916000   270.0446      -623.73326      0             -620.41719     -9239.8887      1376.0206    
    917000   261.29381     -624.40284      0             -621.19423     -5029.8429      1361.7505    
    918000   307.23086     -623.93951      0             -620.1668      -9138.2744      1384.229     
    919000   250.35432     -624.64292      0             -621.56865      4387.6078      1366.999     
    920000   255.88261     -624.68402      0             -621.54185     -4366.1951      1374.3515    
    921000   220.41791     -624.93647      0             -622.2298       6170.3645      1367.1669    
    922000   263.2151      -625.02759      0             -621.79538      6475.9971      1383.3678    
    923000   269.23717     -624.52816      0             -621.222       -3468.1813      1380.1079    
    924000   189.25991     -624.79609      0             -622.47203     -10893.327      1395.1011    
    925000   237.34665     -624.90057      0             -621.98602      873.8216       1365.8147    
    926000   195.16594     -625.18466      0             -622.78808     -9065.9909      1392.2544    
    927000   225.50224     -625.2308       0             -622.4617       2428.3639      1384.1574    
    928000   247.16967     -625.28891      0             -622.25374      1404.9472      1375.8625    
    929000   202.767       -625.43509      0             -622.94517      2554.7359      1377.3241    
    930000   195.20341     -625.4759       0             -623.07886      4486.5877      1351.1827    
    931000   221.68472     -625.0129       0             -622.29068     -1018.9141      1393.6246    
    932000   168.57835     -625.58919      0             -623.5191      -2022.094       1368.5043    
    933000   179.12478     -625.78248      0             -623.58288     -6884.8842      1384.1653    
    934000   150.72221     -625.69677      0             -623.84595      6706.8722      1375.9893    
    935000   152.91537     -625.9525       0             -624.07475     -5966.1833      1384.4714    
    936000   122.84638     -625.92015      0             -624.41164     -11613.259      1377.7       
    937000   149.62644     -625.87922      0             -624.04185     -2658.3771      1381.4101    
    938000   164.55377     -625.889        0             -623.86832      4930.0676      1373.3779    
    939000   142.61424     -626.19981      0             -624.44855      1939.4399      1380.0993    
    940000   144.25107     -626.03563      0             -624.26427      1149.8276      1371.734     
    941000   117.77018     -626.16798      0             -624.72179     -1268.5445      1378.5209    
    942000   124.76579     -626.34393      0             -624.81184      8396.4911      1364.3505    
    943000   106.40209     -626.29171      0             -624.98512      2362.3564      1380.4887    
    944000   100.21742     -626.44089      0             -625.21024     -3348.1781      1380.8647    
    945000   94.661706     -626.79967      0             -625.63725      5671.3852      1374.6029    
    946000   100.61356     -626.55624      0             -625.32073     -3723.6088      1377.9439    
    947000   82.55643      -626.71137      0             -625.6976       6533.3643      1369.4437    
    948000   88.526136     -626.49407      0             -625.407       -838.34102      1381.5179    
    949000   72.751114     -626.85892      0             -625.96555      2348.2501      1365.7706    
    950000   73.615912     -626.70934      0             -625.80536     -3091.5428      1366.629     
    951000   74.592352     -626.99982      0             -626.08384      588.83259      1372.6052    
    952000   62.99204      -627.02054      0             -626.24701      1760.3702      1377.2659    
    953000   53.880039     -627.2461       0             -626.58447     -441.71027      1364.1817    
    954000   45.538377     -627.33298      0             -626.77378     -2776.6436      1372.1897    
    955000   39.290258     -627.39513      0             -626.91265      4676.3313      1370.8639    
    956000   37.01178      -627.3866       0             -626.9321       2124.2742      1372.3273    
    957000   32.099784     -627.50616      0             -627.11199      1283.1547      1371.1       
    958000   27.81292      -627.54739      0             -627.20586      163.37457      1369.0912    
    959000   16.554146     -627.62519      0             -627.42191     -3063.1708      1370.8207    
    960000   10.730022     -627.69923      0             -627.56747      2147.8026      1366.5009    
Loop time of 5.90495 on 1 procs for 80000 steps with 96 atoms

Performance: 1170.543 ns/day, 0.021 hours/ns, 13547.954 timesteps/s, 1.301 Matom-step/s
99.0% CPU use with 1 MPI tasks x no OpenMP threads

MPI task timing breakdown:
Section |  min time  |  avg time  |  max time  |%varavg| %total
---------------------------------------------------------------
Pair    | 5.1866     | 5.1866     | 5.1866     |   0.0 | 87.84
Bond    | 0.0031925  | 0.0031925  | 0.0031925  |   0.0 |  0.05
Neigh   | 0.0041511  | 0.0041511  | 0.0041511  |   0.0 |  0.07
Comm    | 0.19345    | 0.19345    | 0.19345    |   0.0 |  3.28
Output  | 0.011748   | 0.011748   | 0.011748   |   0.0 |  0.20
Modify  | 0.47522    | 0.47522    | 0.47522    |   0.0 |  8.05
Other   |            | 0.03054    |            |       |  0.52

Nlocal:             96 ave          96 max          96 min
Histogram: 1 0 0 0 0 0 0 0 0 0
Nghost:            552 ave         552 max         552 min
Histogram: 1 0 0 0 0 0 0 0 0 0
Neighs:              0 ave           0 max           0 min
Histogram: 1 0 0 0 0 0 0 0 0 0
FullNghs:         2998 ave        2998 max        2998 min
Histogram: 1 0 0 0 0 0 0 0 0 0

Total # of neighbors = 2998
Ave neighs/atom = 31.229167
Ave special neighs/atom = 0
Neighbor list builds = 32
Dangerous builds = 0

fix npt1 all npt temp 10 10 0.1 iso 0 0 1
run 80000
Per MPI rank memory allocation (min/avg/max) = 8.549 | 8.549 | 8.549 Mbytes
   Step          Temp          E_pair         E_mol          TotEng         Press          Volume    
    960000   10.730022     -627.69923      0             -627.56747      2147.8026      1366.5009    
    961000   9.2787704     -627.71475      0             -627.60081      806.45417      1369.02      
    962000   12.375496     -627.69598      0             -627.54401      3417.9843      1366.2392    
    963000   9.4564556     -627.71484      0             -627.59871     -289.59674      1369.2129    
    964000   9.4351424     -627.6909       0             -627.57504      1779.7961      1367.1246    
    965000   10.066858     -627.71027      0             -627.58665     -1389.6129      1368.4095    
    966000   9.5115704     -627.71619      0             -627.59939     -439.24551      1366.0425    
    967000   9.5894097     -627.70218      0             -627.58443     -1361.9884      1369.6359    
    968000   9.0323809     -627.70895      0             -627.59804     -244.89216      1367.2983    
    969000   8.5390624     -627.70159      0             -627.59673     -1004.419       1367.3462    
    970000   10.47393      -627.7102       0             -627.58159     -1012.9649      1368.1117    
    971000   9.3376129     -627.72029      0             -627.60563     -2555.4235      1371.8396    
    972000   10.567778     -627.7054       0             -627.57564     -1919.354       1368.8014    
    973000   9.606047      -627.70924      0             -627.59128     -583.49696      1370.7366    
    974000   10.350967     -627.68094      0             -627.55383      278.7115       1368.7828    
    975000   10.174964     -627.69752      0             -627.57257      1324.0925      1366.7754    
    976000   9.8535665     -627.71053      0             -627.58953      2096.3642      1367.124     
    977000   9.5192629     -627.71651      0             -627.59962      381.51327      1367.0475    
    978000   9.1097687     -627.70835      0             -627.59648     -156.841        1369.6578    
    979000   9.5427238     -627.7056       0             -627.58842      576.67069      1369.6696    
    980000   10.380259     -627.69959      0             -627.57213      679.69063      1368.0177    
    981000   9.6943528     -627.72206      0             -627.60302     -211.19802      1370.3541    
    982000   10.33936      -627.71911      0             -627.59215      2151.7988      1367.5251    
    983000   10.156218     -627.71637      0             -627.59166      883.45636      1368.1373    
    984000   11.672417     -627.71         0             -627.56667     -1333.6813      1371.51      
    985000   10.176718     -627.70924      0             -627.58427      369.74261      1371.508     
    986000   9.5773501     -627.69261      0             -627.575        562.55569      1369.9259    
    987000   9.5547714     -627.70886      0             -627.59153     -532.6774       1372.7157    
    988000   9.5954984     -627.72471      0             -627.60688     -1141.3992      1369.0215    
    989000   10.77998      -627.707        0             -627.57462      2676.269       1370.7089    
    990000   9.7849071     -627.7092       0             -627.58905     -876.07487      1371.8051    
    991000   11.537875     -627.71139      0             -627.56971      335.02544      1371.7291    
    992000   9.7684744     -627.71903      0             -627.59907     -2859.7925      1373.3413    
    993000   9.929641      -627.7013       0             -627.57937     -1636.2914      1370.2044    
    994000   10.027433     -627.71458      0             -627.59144     -4991.1854      1374.991     
    995000   10.134965     -627.70221      0             -627.57776      1259.3512      1368.1538    
    996000   10.132721     -627.69652      0             -627.57209     -217.63295      1368.2962    
    997000   9.921278      -627.72094      0             -627.59911     -668.39945      1370.0279    
    998000   9.1422471     -627.70235      0             -627.59009      504.84825      1368.2786    
    999000   8.9637439     -627.70636      0             -627.59629     -1574.6898      1369.9251    
   1000000   8.7996117     -627.71149      0             -627.60344      588.51714      1371.3494    
   1001000   9.9781526     -627.70118      0             -627.57866     -1166.0876      1372.189     
   1002000   10.212775     -627.72272      0             -627.59731     -1518.8066      1370.5124    
   1003000   9.8680267     -627.69802      0             -627.57685     -2840.7837      1371.3141    
   1004000   8.4316059     -627.71544      0             -627.6119      -689.29789      1367.7932    
   1005000   9.9178242     -627.69246      0             -627.57067      1399.3019      1366.5569    
   1006000   10.145506     -627.69612      0             -627.57154     -1918.9031      1369.7843    
   1007000   10.411318     -627.71225      0             -627.5844       2870.5037      1368.5313    
   1008000   10.103519     -627.72317      0             -627.5991       75.212583      1369.4242    
   1009000   9.2986008     -627.70125      0             -627.58707      360.86634      1367.7361    
   1010000   9.5912518     -627.71749      0             -627.59971     -2951.1945      1371.0399    
   1011000   10.401678     -627.70144      0             -627.57371      1323.7538      1367.4041    
   1012000   9.1075382     -627.69931      0             -627.58747      1059.2491      1367.7827    
   1013000   8.9985478     -627.71062      0             -627.60012      164.45047      1367.3092    
   1014000   10.846375     -627.68997      0             -627.55678     -376.35872      1369.1082    
   1015000   9.2902749     -627.70395      0             -627.58987      603.07682      1368.4       
   1016000   9.7109403     -627.70059      0             -627.58135     -266.54869      1365.5806    
   1017000   8.7063477     -627.70269      0             -627.59578      1610.6836      1368.3301    
   1018000   10.020797     -627.71097      0             -627.58792     -570.18691      1367.2405    
   1019000   8.1397023     -627.72399      0             -627.62404      312.43094      1365.8808    
   1020000   10.51305      -627.7125       0             -627.5834      -1770.295       1366.8231    
   1021000   9.8482194     -627.7214       0             -627.60047      1823.504       1365.3898    
   1022000   9.9266621     -627.70538      0             -627.58348      856.76371      1367.8774    
   1023000   11.800504     -627.71363      0             -627.56872      2472.6809      1365.7496    
   1024000   8.5740754     -627.69581      0             -627.59052      2155.5559      1364.8459    
   1025000   10.199896     -627.70353      0             -627.57828     -954.95963      1367.7941    
   1026000   9.5884272     -627.69706      0             -627.57931     -1677.9489      1367.5907    
   1027000   9.8744252     -627.70502      0             -627.58377     -1429.9478      1369.4554    
   1028000   10.678652     -627.69615      0             -627.56502      494.04059      1364.8643    
   1029000   9.1954522     -627.70476      0             -627.59184     -2033.721       1370.3889    
   1030000   11.115785     -627.71837      0             -627.58187      390.77806      1369.4972    
   1031000   9.7770053     -627.69439      0             -627.57433     -1324.1984      1370.5389    
   1032000   9.5624041     -627.72199      0             -627.60457     -2105.0106      1372.6433    
   1033000   9.9212924     -627.70827      0             -627.58644      38.806115      1369.0651    
   1034000   9.4822945     -627.70537      0             -627.58893      516.56518      1372.677     
   1035000   9.4081252     -627.71643      0             -627.6009       872.75686      1371.066     
   1036000   10.125197     -627.693        0             -627.56867     -1186.1664      1369.6922    
   1037000   9.915015      -627.70507      0             -627.58332      834.90907      1369.5588    
   1038000   9.5402976     -627.70272      0             -627.58557     -1120.3425      1372.156     
   1039000   10.982908     -627.70975      0             -627.57489      261.24387      1370.6513    
   1040000   10.9281       -627.71883      0             -627.58464      1186.7433      1369.3204    
Loop time of 5.82789 on 1 procs for 80000 steps with 96 atoms

Performance: 1186.021 ns/day, 0.020 hours/ns, 13727.099 timesteps/s, 1.318 Matom-step/s
99.2% CPU use with 1 MPI tasks x no OpenMP threads

MPI task timing breakdown:
Section |  min time  |  avg time  |  max time  |%varavg| %total
---------------------------------------------------------------
Pair    | 5.1244     | 5.1244     | 5.1244     |   0.0 | 87.93
Bond    | 0.0030349  | 0.0030349  | 0.0030349  |   0.0 |  0.05
Neigh   | 0          | 0          | 0          |   0.0 |  0.00
Comm    | 0.18736    | 0.18736    | 0.18736    |   0.0 |  3.21
Output  | 0.012313   | 0.012313   | 0.012313   |   0.0 |  0.21
Modify  | 0.47072    | 0.47072    | 0.47072    |   0.0 |  8.08
Other   |            | 0.0301     |            |       |  0.52

Nlocal:             96 ave          96 max          96 min
Histogram: 1 0 0 0 0 0 0 0 0 0
Nghost:            536 ave         536 max         536 min
Histogram: 1 0 0 0 0 0 0 0 0 0
Neighs:              0 ave           0 max           0 min
Histogram: 1 0 0 0 0 0 0 0 0 0
FullNghs:         3018 ave        3018 max        3018 min
Histogram: 1 0 0 0 0 0 0 0 0 0

Total # of neighbors = 3018
Ave neighs/atom = 31.4375
Ave special neighs/atom = 0
Neighbor list builds = 0
Dangerous builds = 0


write_data amorphousSiO.data
System init for write_data ...


Total wall time: 0:01:23
