96
 Atoms. Timestep: 0
2 0 7.95642 4.74695
2 4.63304 0 11.358
2 0 4.63304 4.74695
2 7.95642 0 11.358
2 0 4.63304 8.47514
2 7.95642 0 1.8641
2 0 7.95642 8.47514
2 4.63304 0 1.8641
2 10.7421 8.43088 6.61105
2 4.15858 10.7421 0
2 1.84736 4.15858 6.61105
2 8.43088 1.84736 0
2 1.84736 8.43088 6.61105
2 8.43088 10.7421 0
2 10.7421 4.15858 6.61105
2 4.15858 1.84736 0
2 10.5201 6.29473 5.04003
2 6.29473 10.5201 11.6511
2 2.06934 6.29473 5.04003
2 6.29473 2.06934 11.6511
2 2.06934 6.29473 8.18207
2 6.29473 2.06934 1.57102
2 10.5201 6.29473 8.18207
2 6.29473 10.5201 1.57102
2 10.1594 8.65935 9.20274
2 3.93011 10.1594 2.59169
2 2.43004 3.93011 9.20274
2 8.65935 2.43004 2.59169
2 2.43004 8.65935 9.20274
2 8.65935 10.1594 2.59169
2 10.1594 3.93011 9.20274
2 3.93011 2.43004 2.59169
2 2.43004 3.93011 4.01936
2 8.65935 2.43004 10.6304
2 10.1594 8.65935 4.01936
2 3.93011 10.1594 10.6304
2 10.1594 3.93011 4.01936
2 3.93011 2.43004 10.6304
2 2.43004 8.65935 4.01936
2 8.65935 10.1594 10.6304
2 0 10.703 0
2 1.88643 0 6.61105
2 0 1.88643 0
2 10.703 0 6.61105
2 0 0 1.872
2 0 0 8.48305
2 0 0 11.3501
2 0 0 4.73905
2 11.2706 2.31295 2.18973
2 10.2765 11.2706 8.80078
2 1.31887 10.2765 2.18973
2 2.31295 1.31887 8.80078
2 1.31887 2.31295 2.18973
2 2.31295 11.2706 8.80078
2 11.2706 10.2765 2.18973
2 10.2765 1.31887 8.80078
2 1.31887 10.2765 11.0324
2 2.31295 1.31887 4.42131
2 11.2706 2.31295 11.0324
2 10.2765 11.2706 4.42131
2 11.2706 10.2765 11.0324
2 10.2765 1.31887 4.42131
2 1.31887 2.31295 11.0324
2 2.31295 11.2706 4.42131
1 11.0086 7.83654 8.10972
1 4.75292 11.0086 1.49867
1 1.5809 4.75292 8.10972
1 7.83654 1.5809 1.49867
1 1.5809 7.83654 8.10972
1 7.83654 11.0086 1.49867
1 11.0086 4.75292 8.10972
1 4.75292 1.5809 1.49867
1 1.5809 4.75292 5.11238
1 7.83654 1.5809 11.7234
1 11.0086 7.83654 5.11238
1 4.75292 11.0086 11.7234
1 11.0086 4.75292 5.11238
1 4.75292 1.5809 11.7234
1 1.5809 7.83654 5.11238
1 7.83654 11.0086 11.7234
1 10.1088 10.1088 3.30552
1 2.48067 10.1088 9.91657
1 2.48067 2.48067 3.30552
1 10.1088 2.48067 9.91657
1 2.48067 10.1088 3.30552
1 10.1088 10.1088 9.91657
1 10.1088 2.48067 3.30552
1 2.48067 2.48067 9.91657
1 0 1.60471 1.57853
1 10.9848 0 8.18958
1 0 10.9848 1.57853
1 1.60471 0 8.18958
1 0 10.9848 11.6436
1 1.60471 0 5.03252
1 0 1.60471 11.6436
1 10.9848 0 5.03252
96
 Atoms. Timestep: 2000
2 0.417943 8.14634 4.92069
2 4.14776 -0.0171996 12.0403
2 -0.361256 4.73782 4.52702
2 7.62766 12.3736 11.0196
2 12.7261 3.8218 8.24432
2 7.62415 -0.0425244 1.42413
2 12.8951 7.90638 8.71635
2 4.87464 0.421823 1.26916
2 10.8359 8.04307 6.84043
2 3.88236 11.3038 0.501985
2 2.02633 3.75699 6.10262
2 7.74694 1.60244 -0.0256103
2 1.79213 7.77033 7.26031
2 7.54398 10.4075 0.178327
2 11.0534 5.13777 6.871
2 4.75601 2.32532 0.0394604
2 11.2036 6.68555 4.81432
2 5.53074 10.2888 12.1177
2 1.91863 6.52535 4.87204
2 5.9658 1.28833 11.2024
2 1.59496 5.74719 7.78471
2 6.25525 1.63616 2.59707
2 10.6309 6.03786 8.76115
2 6.41927 11.2094 1.66181
2 10.2247 9.09243 9.43227
2 3.89726 10.9515 2.51294
2 2.26492 2.84944 8.57758
2 8.77278 2.2519 2.83884
2 2.74119 8.13141 9.22179
2 9.16487 11.4946 2.63754
2 9.72701 3.51779 8.73899
2 3.45737 2.21563 2.97448
2 1.94844 4.45593 3.76515
2 8.59783 1.63166 10.3658
2 10.8277 9.77391 4.93721
2 2.82825 10.964 10.9534
2 10.2049 4.58683 3.80935
2 3.99253 1.92647 10.7044
2 2.49757 8.93899 4.37186
2 8.74691 10.5949 10.9984
2 0.193073 10.3333 13.0905
2 2.72403 12.8137 6.2541
2 12.7277 1.53125 12.9604
2 10.4578 -0.0465646 6.47864
2 12.6867 12.4271 0.961426
2 -0.133042 0.332843 9.50149
2 0.284616 12.3456 11.6718
2 0.397636 -0.351556 6.63776
2 11.4718 2.2231 2.21587
2 10.7913 11.4123 8.38317
2 1.28589 9.87365 1.99591
2 1.97501 0.189944 9.01453
2 1.1849 2.27244 1.73118
2 2.7284 10.5936 8.06294
2 11.756 10.9493 2.3963
2 10.4045 1.17617 8.22698
2 1.08612 9.96717 10.2138
2 1.85333 1.17479 3.70405
2 11.355 1.91185 10.3523
2 10.4487 12.0265 4.46325
2 11.4064 10.9766 10.5972
2 10.3237 1.80185 4.28805
2 1.25182 1.85266 11.0123
2 1.69883 11.3864 4.63744
1 11.0008 7.80523 8.65664
1 4.93786 11.8023 1.59903
1 1.32477 3.99085 7.77465
1 7.81031 1.60119 1.67939
1 1.16918 7.07892 8.6845
1 7.96847 11.4178 1.66119
1 10.95 4.48786 8.44832
1 4.86369 2.02143 1.96821
1 1.31013 4.96403 5.00584
1 7.49507 0.856357 10.8906
1 11.7741 8.26715 5.03532
1 3.72455 11.3268 12.2532
1 11.0347 5.19694 5.10355
1 4.6541 1.47011 12.1583
1 2.1856 7.89362 5.67946
1 7.19317 10.6126 11.9695
1 10.3529 10.7604 3.49914
1 2.53456 9.79261 9.63645
1 1.86578 2.75821 2.98906
1 9.99243 2.08551 9.36486
1 2.43143 10.5453 3.40657
1 10.179 10.5347 9.98802
1 10.2595 3.10832 3.27965
1 2.45028 1.53694 10.0838
1 12.5595 1.29716 1.23861
1 11.6582 -0.101462 7.97089
1 0.0301057 10.754 1.1904
1 2.74886 12.2814 7.93092
1 0.0445005 10.7772 11.5112
1 1.63374 0.215734 4.99946
1 12.6461 1.12807 11.2071
1 10.9994 0.459967 4.77154
96
 Atoms. Timestep: 4000
2 0.00798925 7.21168 4.36143
2 4.93255 0.18439 11.4226
2 12.5365 4.45659 5.41579
2 8.17233 0.0225821 12.0045
2 12.4626 4.60904 8.91956
2 8.63456 12.4657 1.47809
2 12.712 8.8847 7.94709
2 4.13824 0.0984274 1.03115
2 12.6318 6.50845 1.72471
2 4.00602 10.8758 0.0936523
2 1.80467 4.54649 7.3893
2 8.40637 1.95033 0.0295087
2 1.48905 7.99002 6.66279
2 8.01085 10.545 0.0638408
2 10.7287 4.34629 6.36671
2 5.10491 2.11517 13.0913
2 11.2407 5.29523 3.63661
2 6.32768 10.8112 12.0445
2 2.03392 6.43349 5.12792
2 7.24487 2.13248 11.4358
2 1.43766 6.91704 8.9283
2 6.30297 1.60792 1.90047
2 10.9182 6.4645 7.79873
2 6.00288 11.0053 1.62347
2 10.1722 9.00284 8.57945
2 3.24858 11.2225 3.13609
2 2.26327 4.40459 9.73556
2 9.23526 1.10666 3.19233
2 1.73187 9.83983 9.05265
2 8.54379 9.56999 2.16171
2 11.2507 3.03359 8.64349
2 3.63931 2.20763 1.90563
2 2.84209 3.53882 4.65973
2 10.0492 1.54625 10.9345
2 10.6447 7.64846 2.60172
2 3.85768 10.3968 11.275
2 10.8672 2.51967 5.61981
2 4.18911 2.88998 10.5662
2 1.78132 8.87977 3.81855
2 9.16582 10.3614 11.2052
2 11.8739 12.2179 -0.0706542
2 0.392546 0.602016 6.81163
2 0.390102 2.47151 -0.0990005
2 9.52344 10.9008 6.95542
2 12.5521 0.917373 1.14304
2 9.88779 0.227174 6.36632
2 0.853802 -0.101643 12.0052
2 11.9875 0.238573 4.34644
2 11.6045 3.38619 2.94644
2 10.6391 11.5324 9.15458
2 0.903283 10.8768 1.93975
2 1.6235 1.89936 9.47336
2 1.46332 3.01655 2.24732
2 2.04761 12.4707 9.09912
2 11.1216 11.0078 1.8325
2 11.8663 0.773143 8.56676
2 0.957445 10.5969 11.4099
2 1.18714 1.83654 4.06637
2 11.8491 2.51327 11.0619
2 10.1074 9.55332 4.12721
2 11.8567 10.3147 10.8267
2 9.91469 11.932 4.66036
2 1.78965 2.41972 11.4312
2 1.12859 11.5488 4.54903
1 11.2923 8.31078 7.59116
1 4.29362 11.1601 1.90556
1 1.20783 5.20768 8.71688
1 8.21391 1.08519 1.30324
1 1.28247 8.33625 8.31506
1 7.73262 10.8654 1.58936
1 10.8382 4.83571 8.43847
1 4.91154 1.6632 1.00411
1 1.78547 4.61673 5.53811
1 8.80376 1.6583 11.8927
1 11.871 6.54015 3.0599
1 4.87066 11.3805 12.1515
1 11.2819 3.89521 4.72111
1 5.5887 1.76538 11.5159
1 1.43435 7.75842 5.00405
1 7.87752 11.2982 12.2041
1 10.1974 9.32473 2.68638
1 2.32264 10.8431 10.3308
1 2.55957 2.55252 3.42211
1 10.9624 1.85077 9.59116
1 1.8503 10.6827 3.26156
1 10.5056 10.0595 10.1114
1 10.5315 0.84165 4.97713
1 2.54172 2.88563 10.2453
1 -0.0663391 2.78254 1.72522
1 9.88352 12.2712 7.9636
1 12.4717 11.8056 1.52249
1 0.923317 0.611838 8.72988
1 12.4856 11.1462 12.0751
1 0.596127 0.342522 5.02893
1 0.456233 1.6741 11.7133
1 10.037 10.4898 5.35783
96
 Atoms. Timestep: 6000
2 2.05609 7.01146 2.22202
2 5.9106 12.0856 12.4901
2 0.447865 4.46167 5.30193
2 9.46751 11.2271 10.361
2 11.9982 5.65357 8.94235
2 8.43695 11.805 1.58633
2 0.875611 7.46036 9.84947
2 5.50683 0.542655 3.23194
2 1.3476 6.99461 12.6708
2 4.11416 10.6695 1.62096
2 2.34704 5.05509 6.89397
2 8.82345 1.42101 12.225
2 2.55107 7.66608 11.4855
2 7.90622 9.07724 0.409902
2 10.5363 6.28334 4.9118
2 4.98544 1.79824 0.731523
2 0.469999 4.90924 1.12969
2 5.43965 9.51336 12.0156
2 1.97015 6.32105 4.74853
2 7.11056 0.736856 10.6591
2 2.3585 6.09739 9.41364
2 6.93502 2.17245 12.9929
2 11.1786 7.85112 7.31163
2 6.82985 10.102 2.4845
2 10.6197 8.00893 10.3498
2 3.8098 10.7097 4.27535
2 2.32853 3.66728 9.02601
2 8.75341 1.37243 2.76781
2 2.96188 9.50464 9.50492
2 9.68931 9.95794 2.16842
2 10.4849 8.37764 4.34397
2 3.70174 2.65526 2.78142
2 2.82022 3.64254 5.0399
2 9.4586 1.74129 9.38293
2 12.0319 8.24745 1.59861
2 3.65382 11.4339 11.2719
2 10.0481 3.51597 4.67515
2 4.44455 1.79013 11.2332
2 1.67759 8.81962 3.59696
2 7.76194 8.20435 11.286
2 11.5074 10.8601 1.20935
2 1.39917 1.19181 7.06432
2 12.0988 2.95202 0.386806
2 7.68605 10.8134 6.23221
2 0.376518 1.46456 2.26319
2 10.6262 0.30233 3.15765
2 11.8588 0.436988 11.6179
2 11.113 1.17289 5.36814
2 11.4173 4.17299 2.92715
2 8.27124 9.3793 9.19944
2 1.73209 11.0985 2.82008
2 2.43804 1.32342 9.63488
2 1.32939 3.6261 2.96599
2 1.9016 11.3357 8.62768
2 11.681 10.4835 3.2271
2 11.8034 2.0887 8.51751
2 1.32167 10.156 11.0848
2 1.68636 1.66056 4.5562
2 11.6614 2.67927 10.5664
2 6.15703 0.986126 4.71233
2 11.1992 10.0537 10.7978
2 8.64734 1.13635 5.70973
2 1.52479 2.78891 11.4321
2 1.68386 11.5526 5.42771
1 11.3887 6.99424 8.9051
1 5.07074 10.8798 3.09432
1 1.64211 4.9666 8.35908
1 8.20199 1.46671 1.02858
1 2.70729 7.82421 9.92522
1 8.36068 10.1256 1.45317
1 10.6751 7.78282 5.7805
1 5.05271 2.19213 2.29511
1 1.74559 5.0295 5.51351
1 8.70513 0.659271 10.5265
1 0.721462 6.72402 1.44104
1 4.66093 11.0626 12.5172
1 10.9625 4.72591 4.48615
1 5.89439 1.64073 11.9059
1 2.48702 7.41303 3.68063
1 6.50391 8.31762 12.4313
1 10.8766 8.84962 2.65493
1 2.49666 10.885 10.3538
1 2.4743 2.91653 3.72569
1 10.6307 2.70723 9.37874
1 2.30506 10.4892 4.17084
1 9.46341 9.51937 10.3371
1 9.64802 1.73134 4.41192
1 3.18699 2.6453 10.3547
1 12.3079 3.36341 1.90793
1 7.28146 9.66055 7.65655
1 12.1969 11.8619 2.29846
1 1.16507 0.974406 8.51454
1 12.2318 10.7996 11.9633
1 0.662185 0.768509 5.53755
1 12.1649 2.08237 11.8353
1 7.24719 0.284377 5.73397
96
 Atoms. Timestep: 8000
2 1.4304 6.28947 1.78633
2 4.33121 12.311 11.6476
2 1.34647 4.5691 4.50218
2 7.28861 12.0771 12.4649
2 12.693 5.81131 6.77157
2 8.17107 12.3494 2.19376
2 12.4024 7.34356 9.29405
2 4.85307 12.4861 1.56609
2 2.15125 5.4962 12.4258
2 4.5137 10.6756 0.699403
2 2.39882 5.31142 6.18384
2 8.94305 0.28706 13.3268
2 1.25582 5.79116 10.9855
2 7.69682 10.2023 1.16835
2 -0.523195 6.37261 4.65182
2 4.48832 1.29027 13.0542
2 0.898717 3.84099 0.492641
2 5.68535 10.4786 12.5749
2 2.87733 6.19226 3.64245
2 6.77005 1.25196 11.1728
2 1.63818 5.72929 8.74861
2 8.53941 2.14432 0.777835
2 10.5968 7.70109 7.39091
2 6.14929 10.8336 3.19489
2 10.7958 9.91139 9.95373
2 3.19605 10.4148 3.06477
2 1.5847 3.57261 8.31051
2 9.72391 1.6133 3.00491
2 1.74655 8.56107 9.7289
2 8.38973 9.31464 3.24092
2 10.6673 8.33446 4.69864
2 3.33395 1.51016 2.0765
2 3.25246 3.46326 4.36221
2 8.84328 1.96225 11.316
2 8.6995 6.78494 3.02471
2 3.17697 10.0577 11.8085
2 11.443 3.34877 4.0694
2 3.58223 2.1083 10.5494
2 1.10051 8.78656 3.28321
2 8.57155 10.0496 12.1993
2 -0.0990156 11.8546 0.463104
2 1.02878 12.1802 7.11933
2 12.4732 2.5223 13.0526
2 8.66338 0.771505 7.66497
2 0.200827 0.895484 0.961058
2 11.664 1.05408 2.84179
2 11.9944 0.196792 11.9509
2 11.9101 0.97414 5.47966
2 12.6615 3.67424 2.5109
2 8.85654 12.3175 10.7031
2 0.322617 11.2339 2.82085
2 2.04375 0.768157 9.63604
2 1.80825 2.85201 2.34784
2 1.31125 11.1277 10.0951
2 10.9604 -0.125424 1.304
2 12.1965 0.108605 9.04927
2 0.482214 10.4349 11.8019
2 1.77589 1.14201 4.62826
2 11.8045 2.15221 10.1454
2 10.1594 2.10068 7.74441
2 10.5601 11.3079 12.2606
2 9.87089 1.27057 5.46475
2 0.809076 2.49249 11.2313
2 1.39133 11.4959 5.07803
1 11.1234 8.22861 8.9371
1 4.56032 10.9971 2.4045
1 1.3335 5.25247 7.37734
1 9.28331 0.569792 1.38391
1 0.941614 7.01878 9.42936
1 7.73063 10.8306 2.90542
1 11.4816 7.28451 5.85527
1 4.55756 1.43829 1.08704
1 2.80267 4.8969 4.68788
1 8.06447 0.649736 11.72
1 1.52966 5.31306 0.470869
1 4.23967 10.9887 12.6344
1 12.5825 4.47792 4.18637
1 5.16695 1.18215 11.4212
1 1.58898 7.34155 3.10064
1 7.09892 10.6579 13.1307
1 9.50554 8.12281 3.46668
1 1.74785 9.8629 10.8882
1 2.83909 2.02841 3.59391
1 11.4401 1.53997 8.72305
1 1.55552 10.4315 3.6409
1 9.6062 10.5977 11.2017
1 11.1043 1.60193 4.39056
1 1.80535 2.54073 9.95243
1 0.370173 2.63753 1.35993
1 8.5626 12.4356 8.96451
1 12.4188 12.5021 1.98662
1 0.891521 12.2636 8.80027
1 12.1874 11.4007 12.5421
1 0.746607 0.0820575 5.77676
1 12.167 1.99394 11.6816
1 9.0425 1.83638 6.60519
96
 Atoms. Timestep: 10000
2 12.139 6.85669 1.0791
2 6.09586 12.2263 10.4846
2 0.722006 4.6762 4.9281
2 8.66064 11.5781 0.709561
2 1.1761 4.49437 8.23534
2 7.97155 10.9307 3.37489
2 11.9529 7.15376 8.51393
2 4.36105 12.2143 0.842654
2 9.27035 6.8664 11.9285
2 5.11497 10.4642 12.6958
2 2.37861 5.94765 6.39562
2 8.55004 1.17892 1.92553
2 1.29393 7.37095 11.5442
2 7.56356 9.47256 1.32863
2 9.96218 4.47075 5.58329
2 5.19771 2.05886 12.2996
2 11.0786 4.53926 12.669
2 7.45885 10.7146 11.6891
2 1.88782 6.65517 3.11599
2 7.58393 2.38236 12.1509
2 2.05359 6.51236 9.41654
2 6.28538 11.7561 2.16855
2 9.12247 6.14508 8.08032
2 5.9586 9.71682 3.02291
2 9.67008 8.39506 9.77925
2 3.33865 10.8366 2.17483
2 3.22493 4.68326 8.92864
2 9.13697 12.2627 4.26664
2 1.41698 8.7601 9.70526
2 8.6697 7.84565 2.36424
2 7.98396 5.34393 5.31262
2 5.40076 2.28227 4.08734
2 2.99942 4.14896 4.25669
2 8.69659 0.617273 11.2366
2 9.91613 5.22666 3.15411
2 4.35892 10.3829 10.317
2 10.93 2.4487 5.00698
2 5.22118 3.02425 10.1401
2 2.41925 8.63999 2.72095
2 8.87142 9.30982 11.455
2 11.6859 11.6021 12.8969
2 1.45698 0.403599 7.01761
2 2.25252 1.63413 12.4796
2 8.14071 1.917 8.80098
2 12.1074 1.7718 1.41019
2 11.3158 10.5055 2.88237
2 0.413269 1.42645 11.0796
2 11.9759 0.698291 4.95564
2 11.843 3.65626 2.788
2 8.82067 10.993 9.56055
2 1.27221 11.5122 2.73002
2 3.12382 2.34383 8.56548
2 4.28771 2.70802 2.15845
2 2.33391 11.6919 9.56517
2 6.30044 1.02771 4.08428
2 0.55953 1.87041 9.00348
2 1.55789 10.7529 11.1506
2 2.80897 1.45693 5.01672
2 11.9371 3.69925 10.5392
2 10.4269 3.82538 8.42471
2 11.2147 10.2357 10.5829
2 9.40793 2.1926 6.55315
2 2.6467 3.40963 10.8575
2 2.0176 10.9065 5.07043
1 10.2004 7.5018 8.69703
1 5.01704 10.7714 1.85338
1 2.25844 5.58687 8.12868
1 7.50823 0.606102 3.00847
1 0.734259 7.30206 9.90811
1 7.56633 9.31382 2.87574
1 8.81435 5.0168 6.6858
1 3.91006 1.80275 0.795284
1 2.1955 5.68345 4.48737
1 8.72876 1.1658 0.34777
1 10.7168 6.26294 12.7869
1 5.75552 10.6121 11.2639
1 11.0852 4.35188 4.23678
1 6.16566 2.21852 11.1911
1 1.51674 7.56904 1.9918
1 8.39622 9.96461 12.813
1 9.19883 6.41616 2.12026
1 2.53103 10.1198 9.85428
1 3.81527 2.61498 4.05311
1 11.8887 3.45845 8.92192
1 1.96798 10.0403 3.54602
1 9.69721 10.0274 10.3345
1 10.2287 0.771976 5.38534
1 3.62659 3.42609 9.67188
1 12.2183 3.67322 1.05518
1 7.7825 0.322169 9.72958
1 11.9397 11.9495 1.70815
1 2.09046 1.21866 8.52102
1 12.2387 11.6015 11.2448
1 1.61969 0.411003 5.38723
1 1.22796 2.86693 11.6494
1 8.978 2.84892 7.86955
96
 Atoms. Timestep: 12000
2 4.26735 8.03276 3.24204
2 6.5534 11.2411 8.65882
2 12.4681 4.39099 4.90526
2 7.67823 11.1569 11.5981
2 2.45154 6.06303 9.21007
2 7.2347 10.8207 2.69607
2 0.437592 6.7719 10.2311
2 5.06264 0.536382 11.9126
2 2.04398 4.75153 1.44105
2 4.15778 10.84 0.340176
2 2.37742 4.98993 6.43021
2 7.5737 0.658184 0.481465
2 1.97978 6.76783 12.218
2 7.54804 9.25104 0.71997
2 10.6628 5.21834 5.1679
2 4.27545 2.62077 12.5882
2 0.390113 3.65456 0.353426
2 5.43786 10.3672 11.6602
2 2.12651 6.94145 4.40287
2 6.89254 1.80986 11.4693
2 2.4398 8.06931 9.06752
2 5.64587 12.1442 1.87264
2 10.4326 6.7097 7.96383
2 5.38352 9.22622 2.57851
2 10.4134 8.31497 10.2699
2 3.14983 10.2648 2.89902
2 2.44229 3.38999 8.56219
2 8.83223 0.631654 3.05372
2 1.35332 8.76579 10.6146
2 8.08258 7.79581 2.46823
2 8.88242 4.59013 7.30359
2 4.69849 4.85134 2.63522
2 2.3604 4.60865 3.86992
2 8.36698 0.566279 10.0133
2 10.12 5.99659 3.3593
2 3.26856 10.6791 10.8097
2 10.8176 2.91517 3.89048
2 4.22505 1.57491 10.1571
2 3.21671 9.51398 4.82705
2 8.80072 9.32532 11.4002
2 0.505135 11.5687 1.51025
2 1.64377 0.980688 6.22018
2 1.42194 1.54534 12.8631
2 8.21142 0.917714 7.24245
2 12.2767 1.94835 2.55132
2 10.8469 0.378399 3.53545
2 11.6911 0.815397 11.7221
2 1.3981 1.04815 3.83312
2 11.8888 4.42875 2.30984
2 9.21636 10.9928 9.53344
2 0.974273 10.9497 3.41549
2 1.88236 0.792743 8.83518
2 3.04234 2.84686 2.26296
2 1.1648 10.9623 8.60261
2 6.72337 1.52439 2.52986
2 11.9976 0.903157 7.8777
2 0.675945 10.715 11.555
2 3.41032 2.48869 4.20257
2 11.6095 2.47286 10.4716
2 10.3983 2.52446 7.90914
2 11.0086 11.0941 11.4475
2 8.54644 2.07744 5.59859
2 1.56749 2.773 10.7657
2 2.80541 12.0867 5.00181
1 11.4838 7.29034 9.27321
1 4.51492 10.8486 1.96231
1 2.54245 4.93966 8.05822
1 7.34418 12.3676 1.96378
1 2.05786 7.43477 10.4619
1 7.10518 9.1078 2.32823
1 9.74353 5.86612 6.67673
1 2.99111 2.02606 0.81266
1 1.58272 5.45133 5.11354
1 8.21901 0.583474 11.6595
1 1.53353 6.12846 0.809211
1 4.25237 11.507 11.7227
1 11.0327 4.56375 3.5856
1 5.37762 2.25251 11.383
1 3.41862 7.85902 4.61109
1 7.00483 9.87496 12.0199
1 9.56311 7.15836 2.25456
1 1.67024 10.3064 10.1329
1 3.43591 3.86238 3.45179
1 11.6171 2.21379 8.69031
1 2.25601 10.6462 4.48573
1 10.1301 9.95732 10.495
1 9.74365 1.48888 4.38653
1 2.54292 2.0255 9.4444
1 0.775 3.21157 1.84023
1 8.01512 11.8994 8.63537
1 12.3954 0.271354 3.12562
1 1.07255 12.3429 7.56782
1 12.1196 11.7638 12.5836
1 2.65234 1.40799 4.92945
1 12.4591 2.38071 12.0302
1 8.80598 2.58817 7.3185
96
 Atoms. Timestep: 14000
2 1.49091 7.11337 1.21335
2 7.82991 12.3359 9.97258
2 12.1282 4.37297 5.08547
2 7.98164 12.183 12.5395
2 1.89791 6.1448 9.04508
2 8.55391 11.0614 1.58213
2 11.5643 6.43583 9.62759
2 4.96493 12.2064 11.7002
2 1.21341 4.20803 1.31958
2 4.60372 10.2485 0.362497
2 1.85213 4.98896 6.60406
2 8.35339 1.16749 1.43154
2 1.6099 6.22429 12.0096
2 8.52159 9.88101 12.5313
2 9.64192 6.25753 5.08142
2 3.81968 1.15853 0.219167
2 12.0413 3.05982 12.8525
2 6.11898 10.0133 11.4091
2 1.6273 6.3021 4.20217
2 6.50009 2.11721 12.0119
2 1.22005 8.14269 10.6286
2 6.26165 11.532 2.91231
2 10.0527 8.16126 7.64586
2 6.87659 9.24983 1.70433
2 11.8136 9.46038 9.49914
2 4.21495 10.256 2.92954
2 3.07963 3.56355 8.49028
2 9.00003 0.343649 3.64835
2 0.724481 4.78477 10.8824
2 10.1138 8.813 2.67325
2 9.154 5.19088 7.07192
2 4.83136 2.11004 3.59592
2 2.24447 3.31149 4.63766
2 9.0047 1.60962 10.7546
2 11.4479 6.03981 3.96591
2 3.38854 10.1029 10.2697
2 9.59629 3.34064 4.19256
2 3.76474 1.37423 10.3349
2 1.89328 8.84985 3.15098
2 8.98436 10.3856 10.2944
2 12.1297 12.2439 0.868323
2 1.5294 11.8815 6.71323
2 2.26558 2.72587 12.5083
2 8.39937 2.63634 8.41098
2 12.3981 2.02964 1.92832
2 10.9741 1.54976 3.2932
2 0.553409 1.40912 11.5796
2 1.25782 12.2903 3.70007
2 11.0577 3.8562 2.88605
2 10.0289 12.2095 9.65686
2 1.63516 0.822804 1.71022
2 2.1001 0.845466 8.95058
2 2.89504 2.3597 2.41337
2 0.685446 11.1932 8.94679
2 5.94751 1.13888 3.25479
2 11.8664 1.12191 9.08181
2 1.30767 11.1281 11.2639
2 2.83036 0.810223 4.8027
2 11.6293 3.3152 10.8859
2 10.4313 3.05359 8.28207
2 11.2592 11.7813 11.4322
2 9.29677 2.08454 5.9116
2 2.02314 2.56283 10.4419
2 2.26944 10.343 5.25514
1 10.6063 7.91559 9.07943
1 5.61285 10.3594 2.02592
1 2.03647 4.76933 8.23913
1 7.57038 0.308252 2.50451
1 0.784634 6.25765 10.4024
1 8.59655 9.33419 1.40545
1 9.52905 6.62311 6.68739
1 2.64478 1.86474 0.946821
1 1.3314 4.69628 4.77265
1 7.87575 1.64856 12.4167
1 1.82242 5.29698 0.279249
1 4.43064 10.7657 11.4792
1 10.3496 4.98933 4.45049
1 4.59756 1.55159 11.7915
1 1.34103 7.18923 2.94097
1 7.62287 10.9633 11.2902
1 11.4091 7.46777 2.9709
1 1.37862 9.91195 10.1933
1 2.99435 2.16791 3.97297
1 11.2203 2.56809 9.5896
1 2.91015 9.88709 3.6631
1 10.6108 10.7191 10.3577
1 9.66938 1.61354 4.32592
1 2.96474 2.10211 9.16905
1 11.8248 3.65058 1.39544
1 8.79901 1.07849 9.2871
1 12.2659 0.591951 2.43765
1 0.780705 0.189929 8.11541
1 0.300018 12.1938 12.3172
1 1.80386 12.0269 5.31345
1 0.876569 3.30843 11.5252
1 8.99184 3.34242 7.23256
96
 Atoms. Timestep: 16000
2 1.21041 6.87524 1.4356
2 9.03812 9.52325 8.20104
2 0.773763 5.57696 4.53785
2 6.8339 11.2412 12.0588
2 12.1667 5.11818 7.34431
2 7.28911 8.23415 12.1293
2 12.2779 7.7318 9.60963
2 4.67431 0.216274 12.4836
2 10.5519 4.86351 1.08703
2 4.45355 10.1079 1.34003
2 2.55253 5.70018 6.26512
2 7.2002 0.480867 1.22231
2 1.46856 7.09516 11.6583
2 5.92388 5.42847 12.7496
2 10.5938 5.76119 5.53779
2 4.30167 4.24128 12.9579
2 12.1853 2.8722 12.9059
2 5.26092 10.2155 11.4013
2 2.73565 7.03956 3.82325
2 6.36363 2.21747 12.6759
2 1.91516 9.09244 10.1806
2 6.97796 10.8838 1.99592
2 9.91214 7.17447 8.72868
2 5.92975 8.0502 0.842245
2 10.6319 9.44692 10.841
2 4.93307 9.65662 3.36695
2 2.95929 4.02586 8.69755
2 8.56309 0.965067 3.08815
2 2.03315 6.66779 8.69827
2 8.05277 5.86856 1.44023
2 9.68531 4.17466 7.30031
2 5.25844 2.15294 3.51777
2 3.07372 4.46718 3.83347
2 6.87615 10.6449 8.3156
2 9.81812 5.36445 3.57419
2 3.26257 11.1276 11.0936
2 10.1443 3.4568 4.21208
2 4.792 2.74794 10.7233
2 2.99039 9.54067 2.7615
2 8.59626 9.88496 11.7028
2 0.419828 12.3685 1.62338
2 1.6595 0.250738 6.96966
2 1.88455 2.25418 0.413945
2 8.31339 0.814724 8.27957
2 2.41274 4.8103 12.6995
2 10.656 0.640482 3.9278
2 0.347838 0.544552 12.0595
2 1.26633 1.2009 4.2222
2 12.3253 4.63352 2.61884
2 8.98675 11.4038 9.89442
2 12.0102 2.63389 2.27436
2 2.91641 2.03584 8.62189
2 3.89204 2.80659 2.05509
2 1.91673 12.5336 9.63121
2 6.46723 1.6065 3.45039
2 11.9952 1.86253 8.47106
2 0.916183 10.9245 11.7002
2 3.40201 2.0103 5.1569
2 0.433623 2.65757 10.8141
2 9.74338 2.28601 9.17647
2 10.9176 11.2903 12.6167
2 8.7922 1.95024 6.06956
2 2.43111 2.27743 11.0682
2 3.23628 11.8572 4.75666
1 10.7364 7.91299 10.1955
1 5.95918 9.53975 1.64096
1 1.62547 5.40529 7.69788
1 7.30562 12.2741 2.94118
1 1.52989 7.56305 10.0986
1 6.89589 6.85583 13.1085
1 10.4077 5.63612 7.48132
1 3.08521 3.49865 0.738631
1 2.35262 5.65278 4.60746
1 6.28963 0.636568 12.6669
1 1.94248 6.43689 13.0225
1 4.03985 10.8082 12.5456
1 11.4738 4.71818 4.44433
1 5.76545 3.71845 12.1233
1 1.96041 7.78355 2.7195
1 6.57371 9.64133 11.4442
1 9.57253 5.70212 1.97485
1 1.88971 10.7772 10.0767
1 3.66609 2.74627 3.82961
1 11.5621 2.88279 9.62074
1 3.67595 10.5741 3.86637
1 9.75712 10.6121 11.2887
1 9.33588 2.0237 4.22901
1 3.49721 2.92819 9.85777
1 11.9314 4.12722 1.20571
1 8.39182 11.0585 8.38749
1 12.2115 1.1787 2.93151
1 1.34018 1.06269 8.33978
1 12.3321 11.7305 0.212399
1 2.34103 0.833103 5.40133
1 1.09654 1.90038 12.0742
1 9.03687 2.39138 7.52604
96
 Atoms. Timestep: 18000
2 1.49074 6.94801 2.52017
2 11.8075 12.3918 8.50406
2 0.174079 4.64238 4.79331
2 7.41552 12.0161 12.615
2 0.570172 4.57505 7.00051
2 8.48938 9.50192 12.8899
2 12.5649 6.9269 10.2897
2 5.04857 12.5609 0.0993493
2 10.234 4.47361 0.891844
2 4.66566 10.6756 1.22329
2 2.53616 5.81951 7.03922
2 6.49402 1.58165 1.75465
2 1.54937 7.30022 12.4273
2 6.54798 7.76311 0.0656154
2 9.8295 4.86341 5.51848
2 3.81758 3.72334 0.0644488
2 11.666 3.08363 12.4436
2 5.68582 10.779 12.2116
2 1.99696 6.37076 5.1678
2 5.87976 1.83328 12.0757
2 2.08013 8.69695 10.2889
2 5.96987 11.9811 3.28383
2 10.5022 5.64918 8.44061
2 6.83315 9.28351 2.11055
2 9.85729 7.81606 9.91187
2 4.25646 10.093 3.28954
2 2.56059 4.20278 9.52554
2 8.14273 1.42634 4.68049
2 2.41497 6.78048 9.56138
2 9.1584 7.4888 1.2083
2 8.72009 3.5632 7.35242
2 4.79112 3.10136 4.572
2 2.94337 4.5888 4.66994
2 12.2049 10.7698 6.68966
2 9.9541 5.3716 2.95529
2 2.9521 10.3542 11.816
2 10.0505 3.22104 4.12468
2 4.00856 2.43718 10.8699
2 2.25436 9.06661 3.91383
2 8.36587 9.70333 10.6443
2 12.2857 11.5758 0.563214
2 1.15021 0.609783 6.21513
2 1.34669 3.05632 12.9823
2 9.9457 0.0228982 7.82704
2 2.46202 5.71472 0.623803
2 10.779 0.185376 3.5
2 11.9849 0.402868 11.3808
2 0.937474 0.479572 3.28665
2 11.9231 4.6026 2.50368
2 9.86129 9.93657 8.68485
2 11.8282 2.21659 2.08173
2 1.96993 1.5119 8.6027
2 2.77975 4.21522 2.34691
2 1.67197 11.4127 9.30192
2 6.18795 2.68205 4.29503
2 0.335558 1.98677 7.55162
2 0.381219 10.7779 10.7815
2 2.8179 1.83561 4.2597
2 0.394315 2.72568 9.56709
2 10.5784 3.13199 8.00079
2 10.3898 10.6882 11.3365
2 9.94979 1.72015 5.8877
2 1.65483 2.50152 11.3655
2 3.20691 11.5954 5.22185
1 10.8709 6.43326 9.73157
1 5.74861 10.735 2.44746
1 2.88707 5.69005 8.43225
1 6.71465 1.24164 3.3541
1 1.46582 7.45567 10.7709
1 7.76395 8.45864 1.08092
1 9.43184 5.16469 6.91477
1 2.35837 4.11361 0.645008
1 1.62373 4.93083 5.73249
1 6.53796 0.681941 13.0536
1 1.44222 7.07739 0.85083
1 3.97334 11.1997 12.6975
1 11.0039 4.53876 4.04896
1 4.90405 3.19408 11.8379
1 2.4434 7.17966 3.89117
1 7.28896 10.3227 11.7518
1 10.015 5.90083 1.48615
1 1.99708 10.4937 10.4976
1 3.16876 3.31614 3.71569
1 12.0621 3.18039 8.09444
1 3.44175 10.0643 4.6018
1 9.82979 9.24604 10.1635
1 9.94359 1.29249 4.40105
1 2.74469 2.60288 9.85695
1 11.5815 3.58621 1.06311
1 11.122 11.2193 7.80905
1 12.0241 0.409227 2.11634
1 0.933005 0.383591 7.86402
1 11.8008 11.3369 12.0671
1 1.91766 0.465949 4.83564
1 12.2647 2.08505 11.1051
1 9.53548 2.01582 7.73057
96
 Atoms. Timestep: 20000
2 11.9003 6.84942 1.99188
2 12.375 12.2139 7.98706
2 0.466352 5.1869 4.86999
2 7.23057 11.1711 12.5456
2 1.25041 4.25022 7.23432
2 8.1014 9.52618 0.536312
2 0.319939 7.52668 9.36785
2 4.76828 11.8129 12.3462
2 10.6215 5.53912 1.0561
2 4.28985 10.629 1.57067
2 3.16567 5.77729 6.55783
2 6.84308 1.22103 0.93934
2 1.08732 6.76547 11.5616
2 9.37008 9.36832 2.83491
2 10.1426 4.85268 5.6904
2 4.37728 4.66968 12.0561
2 12.1305 4.67748 12.0552
2 5.38994 9.57993 12.1279
2 10.7006 9.3372 3.78893
2 6.37418 2.24346 11.4431
2 2.44342 8.9086 10.6858
2 5.22357 11.814 3.05022
2 10.2923 6.4061 7.81282
2 6.57328 9.27851 2.70308
2 10.7429 8.54778 9.73372
2 4.09626 8.82571 3.9852
2 2.93559 4.19149 8.50731
2 7.92083 1.33149 3.26227
2 3.35726 6.99597 9.20192
2 8.40717 6.85237 2.29297
2 8.77829 3.44895 7.61494
2 4.45249 3.13768 3.25104
2 2.51755 3.34614 5.44105
2 11.5336 10.0192 7.53962
2 9.9912 5.21355 3.713
2 3.43251 10.8841 11.1866
2 10.7287 2.70807 4.24465
2 4.24252 3.58222 10.2785
2 1.7573 8.74163 3.36987
2 8.2117 9.35148 11.1343
2 11.713 11.9111 1.42617
2 2.03674 12.3404 6.51898
2 1.87888 3.20411 12.7459
2 9.52744 0.699613 7.74711
2 1.80568 5.70643 0.826176
2 10.3938 0.43334 3.73768
2 11.7402 1.53562 11.9847
2 0.865075 11.8327 4.35672
2 12.4094 3.80937 3.10958
2 9.97422 11.1417 9.09124
2 0.663476 1.64634 2.50167
2 2.80086 1.37726 9.10838
2 2.55112 4.10459 1.76958
2 1.59728 11.1982 9.2058
2 5.74856 2.31981 2.77246
2 1.11905 1.97662 7.88148
2 0.81099 11.2418 11.4998
2 2.94677 0.842977 3.8341
2 0.334584 3.6237 10.0284
2 11.1741 4.44221 7.47337
2 10.2901 10.689 12.2389
2 8.68848 1.65032 5.59949
2 1.978 2.73459 10.7816
2 2.84318 10.1217 5.00164
1 11.155 8.20138 8.13452
1 4.91992 9.82095 3.03608
1 3.58026 5.56203 8.17971
1 6.3722 0.842015 2.64999
1 1.83945 7.51582 10.3702
1 8.02052 8.78387 2.14356
1 9.48775 4.76501 7.09103
1 3.03268 4.30836 0.248785
1 2.03486 4.65626 5.87946
1 6.33902 0.538993 12.3763
1 12.1918 6.19319 0.14386
1 4.23433 10.4116 12.588
1 11.2772 4.22716 4.29345
1 5.49845 3.67645 11.2584
1 12.3598 8.32928 2.97792
1 7.02337 9.58248 12.2516
1 9.54949 5.77848 2.22535
1 1.90403 10.4335 10.5997
1 3.15936 2.43087 4.34132
1 12.2392 3.19023 8.09293
1 2.60935 8.48067 4.68602
1 9.89735 10.0082 10.6503
1 9.1971 1.75339 4.19608
1 2.8198 3.00613 9.41348
1 1.59326 3.07192 2.59163
1 10.7739 11.7549 7.77806
1 11.9408 0.477097 3.04425
1 1.85057 0.46709 8.18116
1 11.4186 11.8534 12.4335
1 2.43282 11.616 4.77717
1 0.618715 3.0677 11.6261
1 8.87345 1.96626 7.28059
96
 Atoms. Timestep: 22000
2 0.177235 7.70693 1.29531
2 0.217576 11.702 7.86641
2 12.173 3.28759 5.67716
2 7.40256 12.1735 12.433
2 0.028815 3.90834 8.38596
2 8.66426 9.25094 0.118935
2 11.1227 8.42243 9.2529
2 4.90358 12.4722 12.3647
2 11.1938 5.81308 0.651033
2 4.51373 10.7027 0.774964
2 1.4325 5.23316 7.1363
2 6.9518 0.891259 1.33752
2 0.227702 6.83469 11.5069
2 9.22485 8.36074 2.47573
2 9.65772 4.57868 5.37815
2 4.032 3.94273 12.6345
2 12.1269 4.78984 12.1967
2 6.41769 10.269 12.1429
2 10.5591 8.85616 2.79869
2 5.9019 2.16936 11.7469
2 1.1328 9.57093 10.7216
2 5.7408 11.2177 2.98142
2 9.96756 6.1893 7.33315
2 6.65103 8.80957 1.86123
2 11.5502 9.29975 11.7022
2 4.37572 8.97928 3.13321
2 2.95301 4.85208 8.54505
2 8.51662 -0.0324483 3.26566
2 1.46898 7.45699 9.20958
2 8.76877 6.48063 1.98903
2 8.73416 3.34912 6.77754
2 4.29521 2.33923 3.43244
2 2.77585 3.09414 6.05005
2 10.096 9.63646 7.95513
2 10.8286 4.87792 2.87263
2 3.74715 10.159 10.8523
2 9.94426 2.64635 3.57931
2 4.41459 3.73992 10.1465
2 1.15403 9.02173 3.61858
2 9.33503 10.6046 11.3271
2 0.869729 0.255752 1.3458
2 2.50691 11.9744 6.79942
2 1.39591 3.1719 12.9867
2 9.39437 12.291 7.67107
2 1.74751 5.38601 0.227981
2 11.3376 0.527781 3.28185
2 12.7673 1.18454 12.0186
2 1.41696 0.12256 3.97815
2 0.423897 4.06837 3.75668
2 11.3461 11.3591 9.85709
2 0.928111 2.33871 2.78216
2 2.79217 2.0464 8.2978
2 2.6411 4.07928 2.07517
2 2.37854 11.7913 9.44586
2 5.60635 1.64726 2.968
2 10.4403 2.117 8.26419
2 1.33602 11.2321 11.7393
2 3.48059 0.814578 5.00286
2 11.6546 3.11556 10.3426
2 9.89729 4.41409 8.43495
2 11.3895 11.4362 12.7633
2 9.59528 0.771352 5.59958
2 1.84647 2.74739 10.3442
2 2.59388 10.7401 3.78869
1 9.86225 8.0173 8.03509
1 5.38318 10.0451 2.07248
1 1.91264 6.09854 8.33847
1 6.79603 0.173578 2.95357
1 12.7295 8.03189 10.1241
1 8.04056 8.12594 1.1141
1 9.1168 4.9246 7.01298
1 2.68206 4.05841 0.495255
1 1.01694 3.78765 6.7939
1 6.38474 0.720893 12.7608
1 0.294844 6.26169 0.109533
1 4.69 10.6273 12.1608
1 10.7982 3.88341 4.24365
1 5.08132 3.52628 11.422
1 12.1797 8.36406 2.75635
1 7.96479 10.4609 12.4114
1 10.0568 5.7761 1.83679
1 2.24732 10.4592 10.3324
1 3.34286 2.29021 4.74885
1 11.1116 3.48291 8.73824
1 2.80776 9.05131 3.54092
1 10.9478 10.7192 11.3253
1 9.71296 0.817377 3.85788
1 2.97013 3.36069 9.29608
1 2.09892 3.40899 3.22417
1 10.8004 11.2181 8.43884
1 0.416732 0.841795 2.81312
1 1.83795 0.220831 8.14356
1 0.572937 12.335 12.7275
1 2.54937 11.6565 5.17521
1 0.304265 3.08833 11.4685
1 9.37069 1.55574 6.98415
96