96
 Atoms. Timestep: 0
2 0 7.95642 4.74695
2 4.63304 0 11.358
2 0 4.63304 4.74695
2 7.95642 0 11.358
2 0 4.63304 8.47514
2 7.95642 0 1.8641
2 0 7.95642 8.47514
2 4.63304 0 1.8641
2 10.7421 8.43088 6.61105
2 4.15858 10.7421 0
2 1.84736 4.15858 6.61105
2 8.43088 1.84736 0
2 1.84736 8.43088 6.61105
2 8.43088 10.7421 0
2 10.7421 4.15858 6.61105
2 4.15858 1.84736 0
2 10.5201 6.29473 5.04003
2 6.29473 10.5201 11.6511
2 2.06934 6.29473 5.04003
2 6.29473 2.06934 11.6511
2 2.06934 6.29473 8.18207
2 6.29473 2.06934 1.57102
2 10.5201 6.29473 8.18207
2 6.29473 10.5201 1.57102
2 10.1594 8.65935 9.20274
2 3.93011 10.1594 2.59169
2 2.43004 3.93011 9.20274
2 8.65935 2.43004 2.59169
2 2.43004 8.65935 9.20274
2 8.65935 10.1594 2.59169
2 10.1594 3.93011 9.20274
2 3.93011 2.43004 2.59169
2 2.43004 3.93011 4.01936
2 8.65935 2.43004 10.6304
2 10.1594 8.65935 4.01936
2 3.93011 10.1594 10.6304
2 10.1594 3.93011 4.01936
2 3.93011 2.43004 10.6304
2 2.43004 8.65935 4.01936
2 8.65935 10.1594 10.6304
2 0 10.703 0
2 1.88643 0 6.61105
2 0 1.88643 0
2 10.703 0 6.61105
2 0 0 1.872
2 0 0 8.48305
2 0 0 11.3501
2 0 0 4.73905
2 11.2706 2.31295 2.18973
2 10.2765 11.2706 8.80078
2 1.31887 10.2765 2.18973
2 2.31295 1.31887 8.80078
2 1.31887 2.31295 2.18973
2 2.31295 11.2706 8.80078
2 11.2706 10.2765 2.18973
2 10.2765 1.31887 8.80078
2 1.31887 10.2765 11.0324
2 2.31295 1.31887 4.42131
2 11.2706 2.31295 11.0324
2 10.2765 11.2706 4.42131
2 11.2706 10.2765 11.0324
2 10.2765 1.31887 4.42131
2 1.31887 2.31295 11.0324
2 2.31295 11.2706 4.42131
1 11.0086 7.83654 8.10972
1 4.75292 11.0086 1.49867
1 1.5809 4.75292 8.10972
1 7.83654 1.5809 1.49867
1 1.5809 7.83654 8.10972
1 7.83654 11.0086 1.49867
1 11.0086 4.75292 8.10972
1 4.75292 1.5809 1.49867
1 1.5809 4.75292 5.11238
1 7.83654 1.5809 11.7234
1 11.0086 7.83654 5.11238
1 4.75292 11.0086 11.7234
1 11.0086 4.75292 5.11238
1 4.75292 1.5809 11.7234
1 1.5809 7.83654 5.11238
1 7.83654 11.0086 11.7234
1 10.1088 10.1088 3.30552
1 2.48067 10.1088 9.91657
1 2.48067 2.48067 3.30552
1 10.1088 2.48067 9.91657
1 2.48067 10.1088 3.30552
1 10.1088 10.1088 9.91657
1 10.1088 2.48067 3.30552
1 2.48067 2.48067 9.91657
1 0 1.60471 1.57853
1 10.9848 0 8.18958
1 0 10.9848 1.57853
1 1.60471 0 8.18958
1 0 10.9848 11.6436
1 1.60471 0 5.03252
1 0 1.60471 11.6436
1 10.9848 0 5.03252
96
 Atoms. Timestep: 2000
2 12.0246 8.41001 4.83787
2 6.09634 12.3342 11.947
2 12.2179 4.39875 5.15749
2 8.58861 0.00405031 12.2577
2 13.0062 4.92831 7.71903
2 7.37325 12.2041 2.72421
2 0.0288458 8.48144 8.50686
2 3.94087 -0.0465566 -0.237924
2 10.2181 7.77259 6.91001
2 4.79848 10.3638 13.0143
2 1.70248 5.39642 6.67802
2 8.21339 1.06434 0.549312
2 1.71927 8.47176 6.17425
2 8.28651 10.6068 0.601069
2 10.0433 4.62593 6.99875
2 4.94197 1.99968 12.8377
2 10.3109 6.12058 5.09297
2 7.4574 10.665 11.6203
2 0.63498 6.46108 4.33842
2 7.10282 1.76831 11.6949
2 1.71575 7.08892 7.98866
2 5.85641 1.28977 1.46463
2 11.0933 6.20588 8.78261
2 5.57063 11.0416 1.56277
2 10.5387 8.72613 9.34198
2 2.62303 10.555 1.68201
2 2.89351 4.28276 9.1032
2 8.36632 1.87908 3.32081
2 2.68506 9.28006 8.51636
2 7.80881 9.89794 3.67022
2 10.1875 3.30281 8.84785
2 2.87906 1.93301 1.3826
2 3.14762 3.46099 3.54611
2 10.0502 1.85657 11.5863
2 9.37802 8.64038 4.61531
2 4.51071 9.7594 10.8629
2 9.92277 3.8363 3.97956
2 4.68887 2.10115 10.1689
2 1.71912 9.10519 3.76722
2 9.57803 10.4735 11.407
2 -0.014504 11.2978 0.326343
2 1.1428 0.0355314 6.6624
2 -0.154021 1.56105 13.101
2 10.9708 12.5628 6.72977
2 11.7878 0.282767 1.44195
2 0.500757 12.4535 8.43228
2 0.878049 12.5914 11.7938
2 12.5029 12.3863 5.33475
2 10.3583 1.72888 1.68698
2 10.9096 10.948 9.41122
2 0.49357 11.4836 2.59261
2 2.77791 1.6035 8.20287
2 0.374748 2.13811 1.8827
2 2.50492 11.4282 8.7629
2 11.0527 10.6904 2.47793
2 10.5892 0.45009 8.58441
2 1.5141 10.3365 10.4974
2 1.76004 1.20689 4.03924
2 12.197 1.82117 10.3696
2 9.60486 11.5223 4.43272
2 12.3234 9.91168 11.2252
2 10.1701 1.36668 4.39999
2 2.02719 2.42153 10.5693
2 1.74629 12.0039 4.14197
1 11.4139 7.8949 8.32265
1 4.1227 11.3087 0.551355
1 1.70099 5.54063 8.41195
1 7.47872 1.19192 2.22872
1 1.32126 8.57622 7.79848
1 7.55092 10.7417 1.92064
1 11.1044 4.5606 8.212
1 4.42826 1.60815 0.666554
1 0.914741 4.95233 5.22945
1 8.69716 1.53633 12.3573
1 10.5978 7.68037 5.29344
1 5.984 10.2822 11.7828
1 10.4302 4.57534 5.39199
1 5.57232 1.13201 11.4715
1 0.904239 8.09626 4.74842
1 8.53027 11.2842 12.6229
1 9.61964 10.2049 3.81027
1 3.11829 10.0844 9.93117
1 1.85196 2.36046 2.95607
1 10.5764 1.92476 9.98233
1 1.8749 10.6142 3.23535
1 10.7628 9.84462 10.7006
1 9.81019 2.32958 3.05495
1 3.2619 2.82858 9.47729
1 11.6571 1.57624 0.504448
1 11.5593 11.9929 8.26623
1 12.0314 11.5075 1.64881
1 2.22527 0.0410844 7.84778
1 0.455369 11.003 11.995
1 1.00905 0.40513 5.29729
1 0.790663 1.40437 11.3827
1 10.602 -0.110585 5.01637
96
 Atoms. Timestep: 4000
2 12.4089 7.60503 5.13248
2 3.72308 0.350318 11.7038
2 0.516608 2.5806 7.58609
2 7.15281 0.24469 11.6547
2 -0.0916941 4.97386 8.57988
2 5.57686 10.6755 1.65628
2 -0.325395 7.44463 8.42423
2 4.51111 12.7938 1.40904
2 11.141 8.78397 6.83306
2 3.9389 11.8495 13.2772
2 2.44389 4.23516 6.53879
2 8.39759 2.2361 13.4067
2 1.4137 7.46527 6.53197
2 7.75208 10.6471 13.387
2 10.4566 4.9743 6.83466
2 4.30487 1.85182 0.0989418
2 -0.0526096 5.62364 5.49554
2 5.72489 11.1144 11.424
2 2.00021 5.96322 4.6138
2 5.85254 2.60092 11.9002
2 1.81574 5.55005 8.06867
2 6.72273 1.60606 1.9065
2 10.9233 6.7418 8.30606
2 6.6469 8.33426 0.142912
2 10.5483 9.52962 9.14624
2 3.19538 9.97313 1.69935
2 2.70515 3.3 8.78351
2 9.7596 1.77662 2.29627
2 1.94497 8.49851 8.80133
2 8.23105 10.5648 1.92643
2 10.3324 4.04746 9.54619
2 3.89866 1.19455 2.92108
2 3.66471 3.52544 4.39045
2 8.84767 2.36705 10.7491
2 10.7066 9.88286 4.15953
2 3.1084 10.6941 10.4988
2 11.0772 4.51005 3.743
2 3.4241 2.9558 11.3742
2 1.85019 8.10433 3.64992
2 9.24468 11.2048 11.3251
2 -0.056463 10.242 -0.127207
2 1.53029 13.0771 6.3095
2 11.942 1.60814 13.4936
2 11.2527 0.551529 6.47562
2 0.214685 12.402 1.15728
2 12.8905 0.410354 8.03172
2 0.484503 12.51 11.4908
2 -0.144798 0.575273 4.90371
2 12.4155 1.7524 2.17535
2 10.4859 11.8995 8.89597
2 0.862942 10.2246 1.94676
2 1.25766 1.33261 11.0657
2 1.14231 1.90303 1.24664
2 1.5979 11.365 8.13514
2 11.2725 10.8681 2.19417
2 11.0509 1.89405 9.31694
2 0.95598 10.1482 10.8744
2 2.22435 1.19141 4.66631
2 11.8549 2.61595 11.3076
2 10.4113 11.8523 4.289
2 11.7866 10.2718 11.2434
2 10.5914 1.66167 4.11659
2 11.2509 -0.0570973 11.2686
2 2.28381 11.4785 3.93849
1 11.3768 8.42581 8.34284
1 4.02012 11.3036 1.01866
1 1.4311 3.83066 7.84111
1 8.56508 1.62691 1.15026
1 1.17204 7.14177 7.9162
1 6.81083 9.85581 0.843446
1 11.0815 5.10487 8.53464
1 4.99067 1.21597 1.48434
1 2.81868 4.81394 5.16303
1 7.54809 2.03294 11.7626
1 11.8692 8.8704 5.30191
1 4.11352 11.6232 11.6948
1 11.3502 5.10417 5.34375
1 4.50636 2.00594 12.155
1 0.826754 6.99752 5.0368
1 7.28863 11.6358 11.8046
1 9.90006 10.5605 2.99389
1 1.90187 10.0236 9.5619
1 3.61227 1.93377 4.27357
1 10.3233 2.89269 10.6853
1 2.34703 9.8928 3.1258
1 10.6997 10.7373 10.2971
1 11.2691 2.64998 2.79518
1 2.29686 2.44083 10.3479
1 -0.0546323 0.919777 0.830576
1 10.9878 0.482899 8.35135
1 12.6112 10.7729 1.28054
1 1.22717 12.9832 7.76248
1 -0.0119544 10.9282 11.8545
1 1.64188 12.7801 4.63774
1 12.6559 1.20471 11.7382
1 11.18 0.182312 4.77974
96
 Atoms. Timestep: 6000
2 0.48814 7.70085 4.24137
2 4.44966 0.143361 11.2076
2 1.46313 1.30265 7.29515
2 7.7174 -0.129697 11.7345
2 0.151971 3.80234 7.77349
2 6.71304 10.3654 1.66593
2 0.885144 6.33264 9.56814
2 5.38446 12.7616 1.24285
2 10.9803 6.75769 4.43121
2 4.20522 11.4426 12.8681
2 2.19665 3.79113 6.17257
2 8.61003 1.81241 13.1766
2 2.1514 7.20254 6.8324
2 8.134 10.7525 12.958
2 11.1015 4.64101 6.25244
2 5.04652 1.64149 0.217438
2 0.264874 5.17732 4.48012
2 5.82762 10.5889 11.0944
2 2.35404 6.38352 4.4462
2 6.19712 1.80003 11.8528
2 12.5132 8.09519 7.88773
2 7.34524 2.22907 1.18347
2 10.7178 6.32981 7.89341
2 7.69202 8.56881 1.30432
2 10.466 8.58356 9.28528
2 4.07536 10.8822 2.19764
2 2.127 1.85838 9.05725
2 9.85955 2.50787 1.50691
2 1.09138 9.10978 9.0392
2 9.31944 10.7538 2.27491
2 10.4682 4.06558 8.99829
2 5.15164 2.03126 3.09473
2 2.09937 3.37657 4.08581
2 8.71458 2.50988 10.61
2 11.3012 10.1543 4.33929
2 2.81815 10.5445 10.4928
2 11.1628 3.64179 3.51183
2 3.1301 1.81141 11.798
2 2.96308 8.98613 4.5493
2 8.32434 10.0915 10.5661
2 12.6305 11.033 0.266516
2 1.55852 12.3239 5.9893
2 0.460642 1.63973 0.028438
2 9.68841 0.774616 6.8186
2 0.964748 12.1242 1.49324
2 11.7565 12.4037 7.75136
2 11.549 -0.0637402 11.8605
2 11.5342 1.58551 4.3611
2 12.3299 1.89929 2.39472
2 9.73312 11.4894 9.13722
2 1.42816 10.8687 3.13087
2 0.255389 2.36125 11.2891
2 2.27144 1.89913 2.0194
2 0.551848 11.2833 8.87678
2 11.4959 11.8217 2.90593
2 10.4047 1.42811 9.84733
2 0.253571 11.2673 11.2147
2 2.9138 1.36281 4.58171
2 10.746 2.38666 11.7384
2 9.55625 12.1062 4.59044
2 11.2514 10.3782 11.3463
2 9.49446 1.76025 3.64448
2 8.33394 4.31787 13.0622
2 3.60944 11.8484 4.54116
1 10.4307 8.19315 7.7551
1 5.49486 11.1625 0.991874
1 1.66948 2.8333 7.61756
1 8.71555 3.11094 0.857423
1 1.3262 7.15556 8.33296
1 8.19677 10.1432 1.22004
1 11.4066 4.48891 7.8882
1 5.85521 1.36033 1.75929
1 1.85092 4.88354 4.71962
1 7.84323 1.69567 11.5831
1 11.7405 8.16697 4.08093
1 4.04936 11.383 11.191
1 11.5919 4.99769 4.68089
1 4.52761 1.43603 12.0765
1 2.00288 7.82701 5.09769
1 7.3601 11.0745 11.4816
1 10.2215 11.0509 3.52396
1 1.31077 10.539 10.001
1 3.33917 2.02637 3.35273
1 10.2405 2.81318 10.3029
1 3.08189 10.495 3.66967
1 10.0489 10.2849 9.97084
1 10.7499 2.36063 2.8149
1 1.91544 1.83078 10.6739
1 1.03267 1.10566 1.40248
1 10.3359 0.248089 8.21296
1 -0.212173 10.9265 2.00937
1 0.435469 12.5793 7.59727
1 12.0637 11.2642 12.3597
1 2.82667 0.00436143 5.30519
1 11.978 1.63569 12.2498
1 9.38452 0.773559 5.08104
96
 Atoms. Timestep: 8000
2 0.448834 7.51513 4.40879
2 4.74652 -0.0890857 11.9382
2 0.640198 1.24125 8.62543
2 7.66437 0.402871 12.4974
2 12.6772 3.74409 7.9994
2 5.96174 10.4467 1.67676
2 -0.133865 12.1494 5.77004
2 4.96802 12.1969 2.92166
2 11.5665 6.50168 4.61361
2 4.94527 9.99262 12.533
2 1.93585 3.34916 7.26542
2 7.65636 2.43749 -0.000979786
2 2.35278 8.9449 5.91454
2 7.32936 10.6212 -0.0547873
2 10.6075 4.6999 6.37806
2 4.05989 0.937026 1.03085
2 -0.0377082 4.19787 5.48319
2 6.62415 10.9754 11.3837
2 2.15496 5.94416 5.79659
2 5.66993 2.08309 12.1017
2 0.505507 8.71978 8.44626
2 6.21545 1.16052 1.46024
2 10.9104 5.98915 8.57647
2 7.57556 -0.415055 1.89355
2 10.9225 8.43269 10.1703
2 3.50542 9.86094 1.77323
2 1.99174 2.97502 9.87461
2 9.4414 1.8408 2.383
2 3.38328 10.4048 7.99721
2 8.83092 10.2223 2.41461
2 10.3442 3.33399 8.93475
2 3.26386 1.44507 2.7434
2 2.2662 2.97567 4.54278
2 8.18933 2.4474 11.1035
2 11.4628 9.1675 3.04018
2 3.75242 11.849 10.4974
2 11.126 3.9254 3.69167
2 3.08569 2.12696 12.2002
2 2.44656 7.45047 3.4887
2 9.25783 10.7639 11.3372
2 0.397852 11.3786 12.9138
2 1.80422 10.9441 6.38219
2 0.701645 1.76474 12.7632
2 10.1791 0.0577763 6.84065
2 -0.101192 0.771045 0.9694
2 11.9882 12.463 8.65678
2 -0.382232 0.612789 11.423
2 12.2401 2.59677 1.81175
2 12.4235 5.07161 0.245415
2 9.7943 10.406 9.09891
2 1.53326 11.3411 1.6696
2 0.392602 3.73652 11.5351
2 0.475875 3.78517 0.239112
2 2.12557 12.1706 8.32836
2 11.3197 11.1758 1.56921
2 9.67118 0.521323 9.86169
2 2.36228 0.755822 5.52985
2 2.05683 1.8948 1.97649
2 10.851 2.96026 11.2939
2 10.8493 11.2966 4.42686
2 11.9818 10.8559 11.0573
2 10.945 0.916349 4.01544
2 5.01621 1.48164 3.79265
2 1.51475 11.5731 3.92649
1 11.8947 7.43549 8.76652
1 4.89301 10.0953 0.640508
1 0.894391 2.77844 8.67971
1 7.88043 1.27584 1.2442
1 1.7525 9.3584 7.44504
1 7.4612 11.1647 1.79418
1 11.1501 4.58875 8.07759
1 4.97839 0.628403 2.31905
1 1.80505 4.2187 5.83904
1 7.05726 2.94752 12.1788
1 11.944 7.88381 3.66027
1 4.91859 11.2721 11.4354
1 11.6067 4.81157 4.91973
1 4.25877 1.26308 12.9627
1 1.87976 7.47986 5.06176
1 7.88155 11.402 12.2068
1 10.7134 10.6487 2.99052
1 3.34593 11.613 9.05837
1 3.22211 1.71378 4.40477
1 9.67062 2.38978 10.2719
1 2.09764 10.2124 2.76883
1 10.6618 10.0053 10.5822
1 11.0793 2.59172 2.6632
1 2.00797 3.50054 11.4809
1 0.821543 2.32585 0.897433
1 10.1109 12.2901 8.63938
1 -0.0416038 11.767 1.06961
1 0.656494 12.5539 8.31432
1 0.176799 11.8123 11.4099
1 1.6157 12.3257 5.49828
1 12.4636 2.38934 11.3913
1 11.2507 12.5929 5.32447
96
 Atoms. Timestep: 10000
2 12.2858 7.14815 4.50033
2 3.98374 0.561382 12.5179
2 0.408628 1.97575 9.58324
2 7.5739 12.2765 13.3312
2 3.70889 3.47928 5.92039
2 5.82574 10.234 2.90863
2 -0.188473 12.5822 4.83559
2 5.46341 12.4886 2.20314
2 10.7015 5.45005 4.13498
2 4.13758 11.4461 -0.0617979
2 -0.0959387 3.74682 8.23257
2 8.50385 1.35075 13.0699
2 2.09515 8.52106 5.57255
2 7.45305 12.6434 3.74354
2 11.1344 4.12935 6.15833
2 5.05088 2.24956 0.699675
2 0.169211 3.68094 4.60403
2 5.89837 11.8603 11.6292
2 1.65321 6.01484 5.14192
2 5.90283 2.81013 12.0808
2 1.20215 8.50661 8.24648
2 7.19447 1.09851 1.69048
2 -0.214606 5.98509 7.71155
2 8.38183 12.082 1.6609
2 12.2512 8.76464 9.36715
2 3.65048 9.87275 2.12735
2 1.43009 4.26746 10.8254
2 9.83803 0.690063 1.20134
2 3.07421 10.4362 7.62094
2 8.73554 10.2344 3.35579
2 9.94968 4.31178 8.73328
2 2.3491 0.650839 2.63601
2 2.76006 2.92725 4.8786
2 8.10498 2.59876 10.3361
2 10.8515 8.82032 3.81878
2 3.8019 11.6345 10.6678
2 10.81 2.73733 3.51041
2 2.80643 2.77602 12.7572
2 1.25244 8.63693 3.24072
2 8.9273 11.3541 11.7537
2 -0.16202 10.9736 13.3595
2 1.5041 10.6679 6.35122
2 10.8189 3.05934 12.4986
2 10.8103 -0.450143 6.60618
2 12.6749 -0.117561 0.389189
2 12.608 0.407396 8.71036
2 0.0401779 12.6204 10.8467
2 12.4949 1.2952 2.22096
2 1.41232 4.26087 2.62555
2 10.0528 11.738 8.9018
2 0.698541 10.6407 1.52551
2 0.653684 2.75173 13.1838
2 1.00696 3.01923 1.70333
2 2.48303 0.0369812 9.19264
2 10.7862 11.3837 1.76669
2 10.3278 1.22445 8.4892
2 3.03347 -0.258163 4.5462
2 1.57314 0.423224 1.48641
2 11.3336 2.86097 10.2912
2 10.3679 11.3011 4.14856
2 11.1924 11.2906 11.4947
2 10.7771 0.481515 3.9493
2 4.54575 2.2649 2.88195
2 1.56067 10.7879 3.94475
1 -0.441684 7.5043 8.25033
1 4.9491 10.7242 1.35749
1 1.07652 3.54372 9.63736
1 8.3754 0.500045 0.795625
1 2.19943 9.46221 6.92917
1 7.51257 11.1396 3.24042
1 11.7303 4.56433 7.50834
1 5.70879 1.34849 1.99461
1 1.73325 4.4589 4.18168
1 7.67221 2.27733 11.8481
1 10.7873 7.10793 3.95987
1 4.5532 11.8704 12.2259
1 11.5676 4.11542 4.55358
1 4.48446 2.08938 12.8161
1 0.967712 7.58538 4.40948
1 7.35313 11.4987 11.8073
1 10.19 10.1939 2.8306
1 3.46683 11.7307 8.86241
1 3.38223 1.4756 3.9621
1 9.67961 2.79118 9.37837
1 1.88165 10.0425 2.59285
1 9.91658 11.2262 10.2701
1 10.8871 1.35635 2.6256
1 1.86494 3.97021 12.5156
1 0.525558 1.3106 0.747632
1 10.9365 -0.32075 8.25307
1 12.2552 11.4722 1.09379
1 1.00603 0.559698 9.91447
1 12.7342 11.5165 11.8949
1 1.70744 11.8964 5.15639
1 12.5639 2.46291 11.7247
1 11.2387 12.2953 4.97363
96
 Atoms. Timestep: 12000
2 0.080641 7.63141 3.74494
2 5.23979 1.22657 11.871
2 1.38162 1.03147 10.1751
2 9.76886 0.768879 0.7695
2 10.3786 9.16202 11.6558
2 7.74648 10.2511 12.1477
2 12.4528 11.8507 4.76808
2 4.83305 1.11057 2.13714
2 10.6148 6.12031 4.91119
2 4.93798 11.7705 0.0258199
2 12.3964 3.11577 9.38393
2 7.83935 2.58965 0.0574223
2 2.33394 8.2138 5.91758
2 9.68055 11.6991 13.4291
2 10.7447 4.12333 7.03647
2 3.84652 2.90066 0.508188
2 12.5822 4.22621 5.28409
2 6.66492 11.8747 11.1767
2 1.77199 5.87051 3.66197
2 6.37769 3.8641 12.5892
2 0.283715 8.63541 8.01994
2 2.64804 3.74945 2.29086
2 11.9345 5.48336 9.09194
2 6.57675 0.340039 0.920976
2 11.1491 7.89749 9.9615
2 4.12977 11.6857 2.79644
2 2.09317 3.38198 10.2941
2 8.92418 1.9242 2.77608
2 2.69049 9.94882 8.40028
2 9.47101 10.2475 1.21532
2 10.3291 2.76701 9.31917
2 3.25886 2.01063 3.33349
2 0.943225 2.77677 3.81371
2 8.79415 1.95584 11.5574
2 10.4475 8.54483 3.05851
2 4.60299 11.6824 10.3055
2 10.279 3.77157 4.28594
2 4.04813 3.5064 11.5862
2 1.90006 8.79833 3.00579
2 9.16061 10.3569 10.2968
2 -0.0298051 10.32 13.1923
2 1.44928 10.6132 6.37133
2 11.7649 12.5204 0.728368
2 10.8135 11.6868 6.62038
2 1.14495 1.49577 0.531354
2 12.7019 -0.119629 8.26942
2 0.754103 11.6311 11.0143
2 11.7605 2.33048 2.34426
2 -0.0339555 4.95498 3.02023
2 10.4662 10.591 8.81745
2 1.61358 10.8364 1.50509
2 11.4791 1.69563 -0.100537
2 0.782471 3.4865 12.4174
2 2.69015 12.1177 9.36222
2 11.9054 10.3012 2.15852
2 9.72471 0.160553 8.88785
2 1.1665 0.127351 4.54735
2 -0.0315677 3.40392 0.103536
2 10.4879 0.585123 11.4891
2 10.0448 10.9744 3.98618
2 12.0456 9.63791 10.5137
2 10.4952 0.691641 4.42353
2 4.83534 4.28353 2.47271
2 1.85891 10.6358 4.09787
1 12.3204 7.11062 9.04186
1 5.25959 12.5039 1.43799
1 0.968249 2.51363 9.72202
1 8.24741 1.3889 1.52469
1 1.71872 9.24325 7.04837
1 9.41706 9.98444 12.8214
1 11.1455 4.1088 8.99399
1 4.07264 2.87037 2.07253
1 1.06811 4.4365 4.25856
1 7.87784 3.30373 12.0405
1 11.194 7.37213 3.89002
1 5.0153 12.6253 11.7292
1 11.0503 4.64382 5.31878
1 4.99182 2.72175 12.6896
1 1.81088 7.65981 4.07793
1 7.43061 10.5418 10.6051
1 10.3546 10.119 2.69049
1 3.6398 10.8576 9.44869
1 1.81354 1.48377 4.23641
1 9.49843 1.35848 10.0857
1 2.69247 10.6189 2.51215
1 10.4972 9.35152 9.73302
1 10.3146 2.43901 3.58447
1 2.44118 3.86738 11.8744
1 12.6996 2.2385 1.0814
1 11.034 12.2684 8.23047
1 -0.102989 11.1822 1.0914
1 0.969819 12.3834 9.49237
1 -0.165548 10.3139 11.56
1 0.93924 11.6495 5.10568
1 10.7531 -0.00806033 13.0622
1 10.8019 11.9593 4.97553
96
 Atoms. Timestep: 14000
2 12.3857 7.91965 4.36343
2 5.80773 0.257421 10.9965
2 1.89777 3.1591 6.24092
2 10.0904 2.11489 0.513128
2 9.73456 9.83506 13.0986
2 7.41347 9.77299 13.3504
2 -0.0735731 12.5542 4.55708
2 5.06733 0.441523 3.29808
2 10.5436 5.93717 4.04762
2 5.56284 12.2128 13.2661
2 12.6978 3.71127 7.86571
2 7.93941 2.88805 0.112134
2 1.3784 8.01826 6.14519
2 9.44825 12.5385 0.685287
2 10.8057 5.05517 6.52734
2 5.03739 2.36326 11.8242
2 12.7175 4.21312 4.16486
2 6.23968 10.3491 11.0403
2 1.22556 5.86543 4.53593
2 7.85843 2.14466 11.5137
2 12.5339 9.0168 7.01211
2 3.87899 0.352252 12.2595
2 11.7677 6.1385 8.10267
2 6.83913 0.779181 1.30422
2 10.2041 8.46405 8.13047
2 4.78514 1.5295 0.85582
2 2.56753 5.20639 7.41532
2 9.2472 2.19222 2.45353
2 2.36488 10.2165 7.99032
2 8.75832 10.0805 1.73883
2 10.5779 3.43092 8.66458
2 3.79178 1.4716 5.39061
2 1.90532 3.28267 3.71524
2 10.3804 2.67994 11.459
2 9.57406 8.19431 3.02071
2 3.48442 11.5457 10.4593
2 10.4612 3.59397 4.30286
2 7.01679 2.83478 9.37741
2 1.55344 8.18129 3.01147
2 8.23687 8.30676 10.9018
2 11.9723 9.52226 0.239326
2 1.33647 11.0155 6.07838
2 11.5327 12.1949 1.17033
2 11.2253 12.1883 6.73438
2 1.10714 3.72775 1.75965
2 11.4983 0.586061 12.3412
2 11.6942 11.2119 11.4824
2 12.0712 2.34066 2.76471
2 1.91729 6.23928 2.20158
2 8.77015 10.4163 9.07621
2 0.373417 10.4584 2.48276
2 12.608 1.011 0.371112
2 2.76772 2.79498 13.2966
2 0.928184 11.5123 10.5605
2 10.7305 10.3074 2.60711
2 10.2634 0.632899 9.18349
2 2.09963 0.546741 4.48573
2 1.21207 2.83472 13.3381
2 12.7672 1.93109 10.2563
2 9.95561 10.8028 4.89985
2 10.5497 8.75864 11.0948
2 10.4184 0.861092 4.21611
2 6.17674 2.42245 3.41447
2 2.02693 10.6914 3.7451
1 11.5951 7.79152 7.6304
1 5.10662 12.7822 1.41532
1 1.45488 3.71713 7.77121
1 7.53089 2.22051 1.96173
1 1.08591 9.60094 7.01601
1 8.74044 11.0071 0.264944
1 11.2503 4.6431 7.952
1 5.44061 1.43141 4.62522
1 1.11339 4.67692 2.95947
1 9.19712 2.98229 12.7632
1 10.9534 7.43664 3.54627
1 4.6998 11.6619 11.5844
1 11.1447 4.83408 5.0283
1 6.18627 2.26555 11.007
1 0.943028 7.33295 4.70527
1 7.21142 9.15738 11.8738
1 9.14246 9.88672 3.68857
1 2.24686 11.2286 9.30337
1 2.27764 2.21475 4.98753
1 10.9853 1.9818 10.0297
1 1.67284 9.53544 2.43902
1 9.32115 8.94189 9.72458
1 10.7632 2.39998 3.37945
1 4.0662 1.79318 12.9558
1 0.395985 2.19415 1.24624
1 10.0909 11.8805 8.48991
1 11.9562 10.6073 1.52786
1 12.6128 12.6816 11.4028
1 11.5213 9.7055 12.1273
1 1.64193 11.9504 4.78388
1 11.0012 0.54456 0.373069
1 11.0402 12.302 4.87128
96
 Atoms. Timestep: 16000
2 12.3938 6.78754 5.46724
2 6.44324 0.873539 11.2456
2 2.44175 3.53831 6.45147
2 10.1832 0.657121 0.61212
2 10.0504 8.75199 11.5243
2 8.36565 10.0935 12.5351
2 0.524051 12.371 4.7486
2 3.8168 1.61066 2.24406
2 9.99607 6.29599 5.10798
2 4.20663 0.418387 12.8011
2 0.848523 5.05165 8.212
2 8.38734 2.60942 1.33159
2 1.65878 8.01876 6.95665
2 10.6375 10.2713 0.53582
2 11.3777 4.69378 6.68306
2 5.81702 3.09239 10.7835
2 11.4317 5.07339 4.22078
2 6.0923 10.9319 11.214
2 1.87832 5.44629 4.66734
2 7.9984 2.59363 12.4072
2 12.0506 8.44053 7.11853
2 3.97477 1.21731 10.6764
2 11.084 6.11702 8.54734
2 5.89412 2.08892 0.950513
2 10.9067 9.3169 8.6668
2 3.51922 2.72429 12.5781
2 2.75716 4.92852 9.21731
2 8.14756 1.80579 3.15422
2 1.91023 9.4812 9.21001
2 9.45 9.14725 1.87303
2 10.9655 3.82076 9.34721
2 3.57949 1.46723 4.91811
2 1.09752 3.48435 4.71757
2 10.0794 2.45378 11.5124
2 10.4484 8.5658 4.38717
2 3.8162 11.2242 10.6442
2 9.96515 3.08237 4.69101
2 8.6055 2.21304 9.85544
2 1.79759 7.80174 3.75319
2 8.35701 10.4332 10.1427
2 0.254876 8.88163 12.145
2 0.982517 10.8497 6.75373
2 -0.0198552 11.1615 0.981205
2 10.654 11.9333 5.75762
2 0.818244 3.4927 2.24575
2 10.9902 12.3487 11.9749
2 11.8242 10.4022 11.0404
2 11.1 3.05021 2.76597
2 9.10626 4.20242 6.91046
2 9.92172 11.4112 7.60814
2 1.78411 9.42841 1.80726
2 12.2291 0.93987 2.62192
2 2.89875 3.86959 10.4094
2 0.998879 11.7549 10.5919
2 11.4495 8.61961 1.74328
2 10.1329 1.44181 8.38134
2 1.6031 0.604383 6.28905
2 11.0841 2.92204 0.363835
2 11.854 1.09895 9.86922
2 11.7109 10.5366 3.2049
2 10.6869 11.5553 9.51123
2 10.2593 0.595268 3.50846
2 5.684 2.44716 3.51038
2 2.31505 10.6811 4.33608
1 11.3194 7.63854 8.87371
1 3.94004 1.80313 0.658117
1 2.27495 4.97704 7.50783
1 6.88601 2.29516 2.18823
1 1.003 9.39655 7.60309
1 9.30939 9.09308 13.2402
1 11.9408 4.51206 8.10744
1 4.52044 1.64072 3.6462
1 0.609816 4.42957 3.51223
1 9.42471 2.22304 13.0592
1 10.9028 7.72058 5.68982
1 4.81747 12.3277 11.3121
1 10.2378 4.59069 5.56064
1 7.24918 2.37244 10.8184
1 1.29502 6.58478 6.06647
1 7.72645 11.0047 11.5274
1 10.6267 9.36535 3.07935
1 2.3046 10.9503 10.0355
1 2.00614 2.23617 5.67609
1 10.3516 2.46262 9.85308
1 2.13388 9.35205 3.40414
1 9.43068 10.2932 8.79268
1 9.70297 2.14601 3.40411
1 4.08524 2.87279 10.9036
1 12.2066 2.36589 1.61822
1 10.3726 0.534258 7.01846
1 0.343197 9.22893 0.805135
1 11.8238 12.0329 10.53
1 11.6098 8.863 10.85
1 1.68618 11.6146 5.49874
1 10.9872 11.7809 0.351235
1 11.5529 12.1722 3.87563
96
 Atoms. Timestep: 18000
2 0.495879 8.08349 5.39812
2 6.53849 11.9916 10.5895
2 3.09567 3.26228 6.66669
2 9.79332 0.824876 0.249072
2 10.3822 7.792 0.744806
2 7.72849 8.22996 0.257494
2 12.1229 12.0848 3.54391
2 3.4186 2.15908 1.15156
2 10.7348 6.94764 6.59529
2 4.72874 12.2201 12.081
2 0.566708 3.96779 8.1849
2 8.45194 3.41013 12.8697
2 2.5462 8.40521 6.53267
2 9.27399 10.3523 0.914165
2 10.5421 4.57485 6.88105
2 5.22544 2.02835 9.78451
2 11.3413 5.15242 4.60221
2 5.62721 9.53108 11.9845
2 1.33006 5.97615 4.25339
2 8.10082 2.06618 11.3237
2 0.53584 9.60447 6.788
2 3.0921 4.05364 9.14613
2 10.181 4.35759 9.36313
2 6.47439 1.57762 0.293459
2 9.41156 7.19235 9.30072
2 4.00894 2.46593 11.9148
2 1.39212 5.63335 6.79875
2 8.40322 3.25358 1.9887
2 2.53435 10.8916 8.27529
2 8.74371 8.87036 2.94798
2 10.7757 2.18541 8.40584
2 4.4348 3.37242 3.47126
2 2.12308 3.74095 4.55001
2 10.089 2.10993 10.6908
2 10.1854 8.84389 5.1559
2 3.9583 10.5834 10.5897
2 8.89701 4.73978 4.91745
2 8.22301 1.20619 9.39143
2 4.72529 0.256972 1.0794
2 7.93905 8.95435 10.6969
2 0.274967 9.01695 1.50751
2 2.66983 10.9169 5.84765
2 11.2224 11.3066 1.75899
2 11.1767 0.537003 5.83609
2 0.58455 3.77681 2.76916
2 11.4131 11.2849 12.4748
2 12.2911 8.92323 11.7194
2 10.4286 3.68018 2.66408
2 8.00818 4.89897 11.5335
2 11.32 10.3706 6.24908
2 1.88828 11.6361 2.0131
2 11.3258 1.46151 3.10391
2 2.04822 2.00949 10.0215
2 0.408308 11.1078 10.3362
2 11.3583 9.50873 2.82552
2 11.099 12.439 8.56176
2 3.54163 1.69923 5.13842
2 11.014 2.35972 0.622443
2 9.32523 12.2411 10.3127
2 9.82348 11.4162 4.4372
2 10.5411 9.52078 10.2116
2 9.89495 2.05623 4.76783
2 5.77757 3.80329 1.35136
2 4.32759 11.6557 3.6188
1 9.08788 5.53138 10.2188
1 4.82058 1.36614 13.1612
1 2.13444 4.26974 7.50911
1 7.28518 3.19109 0.846952
1 2.18923 9.84065 6.77348
1 9.03643 8.59013 1.24016
1 11.2752 3.94968 8.43407
1 4.18355 3.72359 1.79239
1 0.472669 4.65066 4.03861
1 9.68097 2.18513 12.2334
1 11.4523 8.6472 6.29114
1 5.23313 11.0774 11.2626
1 10.3276 5.71357 5.74714
1 6.74146 1.13965 10.4196
1 1.86767 7.15254 5.47177
1 6.86911 8.5848 12.0126
1 9.89024 9.72497 3.9743
1 2.43187 10.8122 10.0013
1 3.6652 3.55711 4.99908
1 10.025 1.12036 9.48728
1 3.60838 11.8519 1.95289
1 9.40845 8.47015 10.234
1 9.14307 3.53911 3.53454
1 3.80279 2.68566 10.3034
1 11.6178 2.88786 2.07667
1 11.5164 11.7553 7.1574
1 0.203913 10.7285 2.06618
1 11.8415 10.3468 11.1502
1 11.9182 8.1386 13.186
1 3.46804 12.1839 4.83812
1 10.3117 11.5572 0.48177
1 10.9001 0.490058 4.35255
96
 Atoms. Timestep: 20000
2 11.9715 7.33687 6.63181
2 5.04358 12.5364 10.5422
2 2.84107 3.39167 6.57164
2 8.69976 10.558 11.9642
2 10.5741 7.52575 1.23045
2 8.35931 8.74375 12.9929
2 11.9497 0.533623 2.81852
2 4.37788 3.55491 1.50103
2 10.603 5.48383 6.19372
2 4.12267 2.21329 9.46945
2 1.67719 3.67579 8.32092
2 8.02676 1.96558 1.17065
2 1.53922 8.49249 5.32807
2 10.1495 10.0214 0.498401
2 11.4826 3.74949 8.16103
2 6.01155 2.44411 10.0174
2 12.159 3.77114 5.459
2 7.01548 9.63978 9.97772
2 0.699356 6.0971 4.54601
2 7.89842 1.21323 11.8324
2 12.4647 11.4184 6.61347
2 4.25596 4.75131 8.71851
2 11.4778 2.40014 11.0978
2 6.30916 2.78303 0.400774
2 10.4312 5.11817 10.1511
2 4.17571 3.41501 11.2694
2 2.10614 5.75383 6.54736
2 7.11553 3.04675 3.48476
2 1.85828 10.6005 7.3951
2 9.59181 9.54924 2.63947
2 0.385729 4.78896 10.9025
2 4.19915 4.23956 3.96553
2 2.06145 3.53933 4.03992
2 9.82441 0.573642 12.2066
2 10.155 8.03455 5.09355
2 2.50986 11.5937 9.76499
2 9.32661 3.2222 6.2486
2 7.52651 0.814418 9.23264
2 3.82711 1.7716 12.9366
2 9.35357 8.18319 10.3724
2 0.35741 10.1475 1.82976
2 2.69111 11.3762 5.06973
2 11.3739 12.1078 0.337471
2 11.151 0.0751265 5.2767
2 11.7497 4.44509 2.84005
2 11.3751 9.98576 11.2169
2 12.3412 8.80002 12.9337
2 8.87661 3.8387 4.06694
2 9.24215 2.96476 11.6905
2 10.5374 7.43574 8.51835
2 1.46532 0.255009 0.730346
2 9.97821 1.86981 3.64585
2 6.12891 4.6507 10.2612
2 1.20326 9.22913 9.71545
2 11.4977 8.52506 3.12913
2 9.92728 0.938463 7.5165
2 4.17982 1.53693 4.69452
2 10.4423 2.61262 1.26573
2 9.18177 2.79992 8.86509
2 10.0409 10.9945 4.13756
2 11.4613 7.32935 10.978
2 7.57609 2.37501 6.8431
2 6.21379 4.75317 1.88163
2 3.46729 0.6689 2.74623
1 10.0857 3.33415 10.2343
1 4.75361 3.00061 12.8292
1 2.80117 4.45685 7.78904
1 6.92007 3.3964 1.83128
1 1.49023 10.5157 5.75754
1 9.44279 8.69999 1.21256
1 0.304894 4.23706 9.06757
1 4.34513 4.99534 2.21629
1 0.532039 4.62735 4.06338
1 9.20685 1.79755 12.9395
1 10.3887 7.09193 6.79745
1 3.59846 0.602639 10.1302
1 11.0016 4.13745 6.53912
1 6.58796 0.970131 10.8814
1 1.14338 7.11321 5.74473
1 7.91783 9.15333 11.314
1 10.4981 9.35252 4.10324
1 2.31615 10.3796 8.84779
1 3.52797 2.89721 4.9917
1 8.57735 1.49346 8.26637
1 2.94106 1.04106 1.03389
1 10.3002 6.88636 10.1735
1 8.01673 3.08472 5.35028
1 4.92966 3.65038 9.943
1 10.1994 3.4556 2.72163
1 10.7606 11.8875 6.69807
1 12.5299 11.8162 1.51163
1 0.154533 8.77872 11.1284
1 12.2181 8.37988 1.50999
1 3.90625 12.2649 4.37021
1 10.3266 11.3198 12.1386
1 10.6152 0.493156 3.68803
96
 Atoms. Timestep: 22000
2 -0.155207 7.34387 6.85712
2 5.90388 0.189823 11.3523
2 3.15528 3.86875 7.01435
2 9.04788 11.1457 10.1729
2 9.25672 8.52871 0.471468
2 7.47477 8.90393 11.4079
2 11.5181 11.2063 3.23479
2 3.92066 3.99771 2.21714
2 10.0506 8.25706 4.58542
2 4.18442 0.970169 10.502
2 1.90649 5.54262 9.04377
2 8.74026 3.8398 2.58441
2 1.97178 8.8335 5.53717
2 8.98316 10.4834 12.6828
2 0.50453 3.68972 8.61229
2 5.69597 2.16247 9.68903
2 0.9042 4.33995 5.79443
2 6.21036 10.512 9.95479
2 1.56691 6.00849 4.30508
2 7.74319 2.61586 11.6128
2 0.782709 10.8673 6.8357
2 4.64239 5.87616 8.06072
2 11.4657 5.03842 9.90889
2 6.10002 2.96309 1.51379
2 9.12631 5.97947 9.37915
2 4.60328 3.21548 11.9722
2 1.95054 5.97262 7.05868
2 7.84406 2.1603 4.12312
2 2.65966 9.72377 7.77173
2 8.27733 9.07661 2.20737
2 2.21705 3.27084 10.1165
2 4.6417 4.21067 4.9082
2 2.13964 3.27248 4.23613
2 10.2124 0.85607 11.2232
2 10.3093 10.0082 6.52392
2 3.72407 10.152 10.637
2 10.519 3.04284 6.61867
2 8.22976 1.02336 9.33531
2 3.13639 1.73365 0.968584
2 7.75879 8.68748 9.11948
2 11.7814 9.51109 0.996149
2 3.55142 10.9244 5.5324
2 10.6373 11.7794 0.245602
2 10.2359 11.8972 5.76119
2 11.6229 4.44873 2.97637
2 11.2195 10.0924 10.6233
2 11.8737 7.98093 11.9825
2 10.3278 3.29922 4.43897
2 10.1664 3.76671 11.2585
2 9.47187 7.87377 7.41882
2 1.06906 11.7695 1.00948
2 10.045 1.55829 3.2926
2 4.05408 4.24188 9.30833
2 1.00772 9.10379 9.89336
2 10.6944 8.18866 2.15517
2 10.5507 12.1462 8.16139
2 4.33062 1.74407 4.86231
2 10.1104 2.33699 1.17745
2 9.65475 3.27036 8.80005
2 9.65132 10.4647 3.29089
2 10.2967 8.16341 9.57387
2 8.80835 1.83385 6.8606
2 6.41511 4.12493 3.58876
2 2.60846 12.0339 3.47744
1 9.74787 4.57392 9.81347
1 4.42634 3.04729 0.879674
1 3.02064 5.0843 7.97064
1 7.40877 3.07275 2.66424
1 2.4258 10.272 6.46544
1 7.74747 9.16918 0.583919
1 0.996726 4.51224 10.0801
1 4.96429 4.9179 3.55416
1 0.688657 4.5565 4.26062
1 9.60388 2.19619 12.1942
1 10.5437 7.90038 6.34333
1 4.86904 11.3131 10.4662
1 12.1722 3.71302 7.02868
1 6.91457 1.43191 10.4247
1 1.36329 7.21338 5.96351
1 7.74737 10.0277 9.89608
1 9.43607 8.92293 3.29307
1 2.52453 9.65196 9.4799
1 3.46325 3.11665 5.47938
1 9.49174 1.30184 8.36889
1 2.36842 0.451941 1.82811
1 9.09198 7.59148 8.96128
1 9.46468 2.53992 5.38264
1 3.94332 2.64964 10.4528
1 10.3847 3.32889 2.73134
1 11.1243 11.2035 6.85928
1 11.6352 11.1984 1.50575
1 11.6331 8.40487 10.4432
1 10.7763 8.40523 0.494538
1 3.67482 12.2185 4.70118