96
 Atoms. Timestep: 0
2 0 7.95642 4.74695
2 4.63304 0 11.358
2 0 4.63304 4.74695
2 7.95642 0 11.358
2 0 4.63304 8.47514
2 7.95642 0 1.8641
2 0 7.95642 8.47514
2 4.63304 0 1.8641
2 10.7421 8.43088 6.61105
2 4.15858 10.7421 0
2 1.84736 4.15858 6.61105
2 8.43088 1.84736 0
2 1.84736 8.43088 6.61105
2 8.43088 10.7421 0
2 10.7421 4.15858 6.61105
2 4.15858 1.84736 0
2 10.5201 6.29473 5.04003
2 6.29473 10.5201 11.6511
2 2.06934 6.29473 5.04003
2 6.29473 2.06934 11.6511
2 2.06934 6.29473 8.18207
2 6.29473 2.06934 1.57102
2 10.5201 6.29473 8.18207
2 6.29473 10.5201 1.57102
2 10.1594 8.65935 9.20274
2 3.93011 10.1594 2.59169
2 2.43004 3.93011 9.20274
2 8.65935 2.43004 2.59169
2 2.43004 8.65935 9.20274
2 8.65935 10.1594 2.59169
2 10.1594 3.93011 9.20274
2 3.93011 2.43004 2.59169
2 2.43004 3.93011 4.01936
2 8.65935 2.43004 10.6304
2 10.1594 8.65935 4.01936
2 3.93011 10.1594 10.6304
2 10.1594 3.93011 4.01936
2 3.93011 2.43004 10.6304
2 2.43004 8.65935 4.01936
2 8.65935 10.1594 10.6304
2 0 10.703 0
2 1.88643 0 6.61105
2 0 1.88643 0
2 10.703 0 6.61105
2 0 0 1.872
2 0 0 8.48305
2 0 0 11.3501
2 0 0 4.73905
2 11.2706 2.31295 2.18973
2 10.2765 11.2706 8.80078
2 1.31887 10.2765 2.18973
2 2.31295 1.31887 8.80078
2 1.31887 2.31295 2.18973
2 2.31295 11.2706 8.80078
2 11.2706 10.2765 2.18973
2 10.2765 1.31887 8.80078
2 1.31887 10.2765 11.0324
2 2.31295 1.31887 4.42131
2 11.2706 2.31295 11.0324
2 10.2765 11.2706 4.42131
2 11.2706 10.2765 11.0324
2 10.2765 1.31887 4.42131
2 1.31887 2.31295 11.0324
2 2.31295 11.2706 4.42131
1 11.0086 7.83654 8.10972
1 4.75292 11.0086 1.49867
1 1.5809 4.75292 8.10972
1 7.83654 1.5809 1.49867
1 1.5809 7.83654 8.10972
1 7.83654 11.0086 1.49867
1 11.0086 4.75292 8.10972
1 4.75292 1.5809 1.49867
1 1.5809 4.75292 5.11238
1 7.83654 1.5809 11.7234
1 11.0086 7.83654 5.11238
1 4.75292 11.0086 11.7234
1 11.0086 4.75292 5.11238
1 4.75292 1.5809 11.7234
1 1.5809 7.83654 5.11238
1 7.83654 11.0086 11.7234
1 10.1088 10.1088 3.30552
1 2.48067 10.1088 9.91657
1 2.48067 2.48067 3.30552
1 10.1088 2.48067 9.91657
1 2.48067 10.1088 3.30552
1 10.1088 10.1088 9.91657
1 10.1088 2.48067 3.30552
1 2.48067 2.48067 9.91657
1 0 1.60471 1.57853
1 10.9848 0 8.18958
1 0 10.9848 1.57853
1 1.60471 0 8.18958
1 0 10.9848 11.6436
1 1.60471 0 5.03252
1 0 1.60471 11.6436
1 10.9848 0 5.03252
96
 Atoms. Timestep: 2000
2 -0.378831 7.72957 4.58415
2 4.73446 12.1036 11.9576
2 -0.10374 3.91286 4.59405
2 7.83481 12.7184 11.5117
2 0.17778 3.79672 7.67947
2 8.77003 12.0686 2.01003
2 0.46901 7.58241 8.344
2 3.40524 -0.0159099 1.53714
2 11.95 8.35798 6.50729
2 4.32185 9.39248 11.9743
2 1.53476 4.67624 5.8631
2 8.68238 0.602543 -0.188973
2 2.24379 7.8716 6.2003
2 8.48613 10.6604 -0.0750782
2 11.3149 4.15156 6.95039
2 3.70119 1.13744 12.474
2 10.8299 5.67944 4.99208
2 6.72369 10.8411 12.0431
2 1.48862 6.42348 4.06307
2 6.08944 1.23689 11.3528
2 2.0819 6.01916 8.20629
2 6.33545 0.894604 1.08344
2 11.6681 6.64418 8.52977
2 6.8035 9.68113 1.87636
2 11.3444 9.75333 8.71831
2 3.55955 11.0458 3.74584
2 2.39438 3.88985 9.12761
2 8.36418 2.01144 2.40108
2 3.25039 8.90226 8.7963
2 9.9536 10.4092 1.73657
2 10.6127 3.95453 9.42071
2 2.86615 2.3583 1.61699
2 2.19658 3.93878 3.13148
2 8.84094 2.18271 11.4559
2 10.4719 8.55958 3.97552
2 4.18603 10.5995 10.2516
2 10.1068 3.65641 4.34745
2 3.68674 2.33058 10.618
2 1.23408 9.05694 4.13049
2 9.07578 10.3895 8.14206
2 12.6057 11.3512 13.493
2 1.34962 12.5824 6.57748
2 -0.258277 2.50363 0.372252
2 10.7785 0.563205 6.94166
2 -0.455926 0.00858461 1.68964
2 12.0111 -0.552975 8.59219
2 -0.0203383 0.203397 11.8176
2 12.4041 0.2928 5.72518
2 11.5183 1.72578 2.81979
2 10.0213 12.0623 8.58466
2 1.09236 10.7151 2.4425
2 1.28555 1.02403 9.29167
2 0.805157 2.32447 2.68572
2 1.97576 11.8439 9.11178
2 12.0268 10.3127 2.6836
2 10.8172 1.07005 9.80282
2 1.70469 10.9883 10.9425
2 2.15164 1.52065 4.5027
2 11.9306 2.44767 11.3243
2 10.2738 11.1255 4.47042
2 8.9676 10.3375 10.4858
2 9.91776 1.31206 4.89616
2 1.01818 2.2633 11.3351
2 1.75487 12.3888 4.25647
1 11.8097 8.16628 8.16029
1 4.5595 12.0601 2.69904
1 1.83222 4.55958 7.65436
1 7.97535 0.754896 1.48518
1 2.37584 7.76891 7.95913
1 8.22284 10.5412 1.45486
1 11.7476 4.81051 8.46778
1 3.05157 1.39575 0.422966
1 1.24979 4.75961 4.21499
1 7.67658 0.987826 12.0945
1 11.1941 7.52546 4.8508
1 5.24786 10.6569 11.5886
1 11.3184 4.07502 5.18761
1 4.47738 0.878181 11.3141
1 1.29161 7.74842 5.0421
1 8.45342 11.2264 12.1226
1 10.6197 10.1627 3.50918
1 2.69402 10.3453 9.28911
1 2.31416 2.37393 3.05641
1 10.2714 2.57049 10.6363
1 1.90757 10.8307 4.12717
1 10.1038 10.6093 9.31099
1 9.73005 2.2195 3.32205
1 2.11476 2.57886 10.0423
1 12.8605 1.74955 1.72644
1 10.7925 0.295908 8.52153
1 12.6195 11.4883 1.5101
1 0.555771 -0.338265 8.34183
1 0.520892 11.838 11.823
1 1.05741 0.440107 5.39179
1 -0.144399 1.84447 12.4436
1 10.7322 -0.504263 5.25015
96
 Atoms. Timestep: 4000
2 -0.219437 8.26606 5.60189
2 4.32571 12.2751 12.1115
2 0.717306 4.4729 4.89464
2 7.11521 12.6567 11.7398
2 12.3822 4.3911 8.89135
2 8.38436 -0.175959 0.663757
2 12.7031 7.2682 8.44131
2 3.24443 0.4645 1.28716
2 10.9997 7.67552 6.37432
2 3.15132 10.4555 12.2539
2 1.74506 4.4909 7.37977
2 7.51184 1.15036 13.0018
2 1.21002 8.76412 7.0482
2 8.87681 10.6539 12.8624
2 11.6223 3.97463 6.50909
2 2.92924 1.91037 13.3505
2 11.6849 5.69734 4.56783
2 5.91409 10.656 11.2171
2 2.19185 6.90131 5.14905
2 5.25273 1.74862 12.1157
2 1.85027 6.20763 8.74302
2 6.21101 0.297802 1.30776
2 10.6813 6.10646 8.40921
2 10.6003 12.005 0.981665
2 9.80032 8.96171 8.398
2 4.8104 11.2579 2.77775
2 1.39181 3.77602 10.4233
2 9.09295 1.73437 1.83508
2 2.12054 9.02949 9.97505
2 9.78491 9.97922 1.71821
2 10.0295 3.63537 8.95837
2 1.9388 2.7831 1.98834
2 2.6521 3.84459 5.06548
2 8.26994 1.57185 10.6447
2 10.7967 8.12921 3.19893
2 3.4545 10.9113 9.97718
2 10.8618 3.23596 4.31984
2 2.49892 1.25851 10.9673
2 2.89005 9.39692 4.4071
2 8.19305 11.2765 7.47386
2 0.893574 11.1042 0.0802314
2 1.81665 0.0232933 6.54562
2 0.363103 0.375231 0.55564
2 10.2857 12.7514 6.22556
2 -0.127837 12.1231 2.59162
2 12.7444 0.673438 7.78497
2 1.9188 0.0910001 13.0414
2 0.461252 -0.246782 4.41199
2 11.8915 1.30037 2.42776
2 10.0786 12.0131 8.3385
2 2.27708 10.7659 2.88457
2 1.19477 1.60336 8.89024
2 4.43664 2.71473 3.28023
2 1.18508 11.4718 8.76279
2 12.6854 9.49729 2.65055
2 9.87376 1.18871 8.4716
2 1.34419 11.2851 11.2559
2 2.63569 1.69392 4.55516
2 10.7208 1.78902 11.4398
2 11.453 10.8099 3.92715
2 7.96378 10.9336 9.86864
2 10.4544 0.59358 4.09647
2 0.220262 1.23345 12.0185
2 2.81536 12.1385 4.40442
1 11.1247 7.60309 8.12043
1 4.70301 -0.155643 1.632
1 0.91033 4.83626 9.14796
1 7.39429 1.16939 1.22039
1 1.24401 7.84284 8.5072
1 9.10031 11.314 0.987542
1 11.2184 4.61218 7.96147
1 2.00129 1.09026 0.760303
1 2.16425 5.27178 5.89177
1 6.80888 1.48575 11.5382
1 11.6575 7.51635 4.74997
1 4.42299 10.8368 11.2316
1 12.192 4.32826 4.97944
1 3.64267 0.674569 12.2266
1 1.70505 8.43759 5.52283
1 7.62859 11.0502 11.4116
1 11.0182 9.7095 2.61105
1 1.9673 10.6193 9.92195
1 2.7515 3.01464 3.63945
1 9.9787 2.37824 10.0698
1 3.40496 10.8065 3.85404
1 8.92969 10.801 8.58922
1 10.3971 2.07153 2.96374
1 1.2331 2.10817 10.5928
1 11.9835 -0.0454411 1.60598
1 10.9948 0.191481 7.66081
1 0.807452 10.7122 1.9006
1 1.19022 0.0558775 8.01341
1 1.85227 11.6494 12.6967
1 2.12519 0.186014 5.01927
1 11.8358 1.97526 12.5786
1 11.5617 12.6374 4.70335
96
 Atoms. Timestep: 6000
2 0.383757 7.41768 4.09308
2 6.18036 7.97854 13.0529
2 7.4996 5.33311 5.49189
2 7.13485 12.5553 10.576
2 1.517 4.58468 9.09783
2 8.26986 0.575458 0.730821
2 0.730902 8.10199 7.52497
2 4.09315 12.2814 1.36137
2 10.7193 7.16434 5.79414
2 4.0374 9.50067 11.1429
2 4.3029 5.08916 6.90963
2 7.1973 2.35763 12.6869
2 2.34312 7.87655 6.35248
2 8.79981 10.7005 11.7662
2 7.21997 6.0546 2.57298
2 2.88907 1.92436 0.609196
2 9.68152 5.88325 3.43694
2 6.07918 9.86486 10.5908
2 3.5832 6.66434 4.62214
2 2.71358 9.52107 0.294356
2 2.76138 6.2732 8.67751
2 5.86164 1.15424 1.60872
2 11.5365 6.23292 7.73868
2 7.7553 9.94091 1.58452
2 10.3646 8.56362 8.61569
2 4.15125 11.6988 4.03797
2 3.85741 4.26212 9.74797
2 8.44875 2.19287 2.63065
2 3.04468 9.06229 8.55114
2 10.2122 10.5186 1.40034
2 10.7599 3.8393 8.45475
2 3.58574 2.44534 3.08665
2 4.35536 4.06204 4.39879
2 8.69881 2.72941 10.5957
2 9.78574 8.00526 3.06386
2 4.23457 9.84434 0.317088
2 9.00733 3.94451 4.13658
2 4.559 1.06036 11.5671
2 2.2086 9.3264 4.0575
2 7.75663 9.66343 7.09948
2 0.228419 10.7264 0.588969
2 1.85175 1.59067 7.64288
2 0.969751 2.90009 1.61451
2 9.45537 11.7945 6.24856
2 11.7921 0.51603 1.11847
2 0.760128 1.95542 9.80402
2 2.22318 11.7017 12.4748
2 11.8608 12.5437 6.02341
2 10.5743 2.89224 2.12795
2 9.53547 11.0888 8.85347
2 1.34375 11.101 2.66355
2 3.58049 1.88725 9.59656
2 5.20872 1.29359 3.92378
2 2.53016 11.928 9.56885
2 11.5157 11.5833 3.68921
2 11.2529 1.08644 8.08465
2 1.43914 10.3731 10.7168
2 2.75071 1.78874 5.73433
2 9.36568 1.19708 8.9939
2 9.71439 10.2948 4.5416
2 8.143 9.36636 9.7921
2 9.49634 1.01267 4.49975
2 11.8104 2.98786 12.7025
2 1.21107 12.3335 4.65545
1 11.383 7.71219 7.31627
1 5.09655 12.3206 2.64112
1 3.43845 4.77304 8.40906
1 7.45183 1.71806 1.48977
1 2.00695 7.47587 8.16476
1 8.75503 11.0473 0.732514
1 12.2094 4.94678 8.52955
1 2.6383 2.89668 1.8625
1 4.43949 5.31214 5.22807
1 7.73195 1.42548 11.4318
1 10.9727 6.95369 3.91351
1 5.53629 9.23915 12.207
1 8.17996 5.4198 3.98293
1 3.76623 0.65122 12.7584
1 2.13697 7.76754 4.77491
1 7.51723 10.7495 10.8037
1 9.45336 9.50912 3.15904
1 2.79691 10.215 9.57523
1 4.11067 2.34258 4.43115
1 9.54889 2.82914 9.06656
1 2.51026 11.1769 4.26032
1 8.88728 9.4818 8.51954
1 9.61896 2.40494 3.57452
1 4.70838 2.79801 10.5991
1 11.8701 2.20812 1.50008
1 9.86333 12.5507 7.71133
1 11.965 11.2955 2.10007
1 1.95806 1.20874 9.22955
1 1.45081 10.1 12.4664
1 1.14675 0.899034 6.04449
1 12.1303 3.0841 11.043
1 10.5132 11.9064 4.91556
96
 Atoms. Timestep: 8000
2 1.13548 9.36795 3.66083
2 5.99302 9.05912 7.82496
2 6.97143 8.39254 4.51504
2 7.42853 11.585 10.5418
2 0.89348 5.15356 8.08486
2 11.1077 8.7172 9.50879
2 0.050391 9.17095 8.07285
2 3.91744 3.56084 2.81624
2 11.9715 7.89695 5.35588
2 5.21214 8.59351 10.8556
2 3.21513 5.14411 7.36751
2 6.41946 2.89635 11.6074
2 11.7546 7.19542 11.2276
2 9.28709 9.71379 10.4278
2 8.72719 7.79875 2.51906
2 1.85883 3.49199 12.4037
2 7.47474 5.28756 3.49891
2 7.32999 8.488 9.80558
2 5.36627 6.97186 6.6418
2 2.29946 10.1939 3.07235
2 2.14156 5.6592 9.68987
2 5.1472 5.35044 10.3613
2 10.1466 6.19574 7.14406
2 10.1309 8.61108 12.3448
2 9.55613 8.19627 7.60426
2 3.96322 0.972333 4.95134
2 3.99196 10.4182 10.7468
2 6.45267 4.66877 1.16697
2 2.65915 7.58414 11.9748
2 11.2768 10.4976 12.4206
2 9.99832 3.82459 8.45344
2 7.34087 3.19808 7.64008
2 5.44389 5.00785 7.50386
2 8.63841 1.86874 9.67478
2 10.9511 8.5766 2.8105
2 4.89034 6.7907 9.00586
2 6.0874 3.27768 2.77714
2 4.29864 3.7676 0.544845
2 5.31992 9.81956 5.49884
2 7.92116 10.3646 8.68013
2 1.85293 11.1855 1.29059
2 2.13302 2.90664 9.9403
2 10.7403 4.95168 11.0146
2 9.81769 0.876935 4.92957
2 11.752 2.00974 12.7501
2 11.6089 1.73626 9.69919
2 2.87983 1.34937 1.9857
2 0.828157 11.5117 7.26359
2 8.68653 2.65908 1.6499
2 9.24042 10.9975 6.5495
2 12.1225 6.36337 3.13284
2 2.90701 1.11496 11.127
2 5.09855 3.6176 5.63371
2 2.19045 9.68676 11.7081
2 11.13 11.554 2.41718
2 1.1913 10.029 10.8698
2 3.97214 9.54875 1.25614
2 2.701 11.6401 9.08899
2 9.88838 1.39565 7.62428
2 9.05995 9.97446 2.82244
2 7.88694 9.06914 6.61155
2 8.53519 11.987 2.18106
2 9.52881 0.480247 10.9468
2 2.53531 10.1024 6.39804
1 11.1414 7.86206 6.77658
1 4.3805 2.66742 4.52058
1 2.29828 4.27701 8.85055
1 5.28585 4.18059 11.6619
1 1.56232 6.57426 10.8984
1 10.8656 9.64318 11.0647
1 10.9028 4.8802 7.7658
1 11.7488 3.72429 12.2261
1 4.22955 6.34973 7.76012
1 7.58199 1.87942 11.5123
1 0.844949 7.83354 3.7423
1 5.78612 7.82434 9.52415
1 8.19548 6.85895 3.803
1 3.22223 3.05861 1.49524
1 6.25868 8.53236 6.14521
1 7.67258 9.93695 10.2807
1 9.85421 8.6801 1.78234
1 3.83016 8.81562 11.8827
1 6.14531 3.86693 6.58405
1 8.48686 3.44395 8.94882
1 3.73041 10.7978 5.5259
1 8.90683 9.75659 7.64731
1 7.48142 3.69324 2.20274
1 4.64711 11.8644 10.539
1 8.92161 1.07359 0.614306
1 11.1194 12.0018 6.41165
1 11.8565 11.8072 1.04054
1 1.66821 1.44302 10.1278
1 3.60675 11.113 1.71318
1 1.6784 10.262 8.02756
1 10.0592 1.09817 9.47354
1 9.81905 11.4774 3.08681
96
 Atoms. Timestep: 10000
2 0.923024 9.90321 6.45378
2 5.7427 8.40586 6.29487
2 5.50423 7.70533 3.70683
2 7.3109 11.5531 9.53571
2 0.922382 3.8452 7.74097
2 2.03601 7.15975 11.6841
2 9.8293 4.19915 9.55625
2 2.44889 1.9727 6.95347
2 10.9549 9.17555 7.39519
2 4.68138 9.19723 8.57132
2 2.55221 5.19874 7.70691
2 9.52197 4.4364 11.5875
2 3.89661 5.06294 12.2061
2 10.9572 7.26883 12.1502
2 7.40719 7.95318 1.5953
2 3.25537 2.5248 1.20229
2 6.62996 5.2638 1.90613
2 6.66901 8.37959 9.38003
2 4.25789 7.22781 5.59547
2 1.53895 11.6167 4.83012
2 2.29298 5.66289 10.0054
2 7.64347 5.98224 12.234
2 9.63862 7.1997 9.54318
2 7.40087 9.28161 11.7663
2 9.03526 9.0083 6.87803
2 3.72875 11.7176 5.76164
2 4.60046 0.610398 11.125
2 6.92944 2.94681 0.451853
2 3.63186 7.6217 10.1242
2 0.231317 9.45115 12.5159
2 7.87596 5.13924 8.31809
2 6.73486 3.85634 6.02388
2 4.17609 5.07131 6.10077
2 7.40813 2.02306 8.11315
2 9.49164 7.51949 12.2073
2 4.26496 7.18888 7.82787
2 6.01033 3.82698 3.51411
2 7.4344 2.78252 11.0574
2 3.74062 9.48942 5.8354
2 8.61536 9.61437 9.09205
2 2.74661 9.9877 0.416223
2 1.98184 2.59262 9.14147
2 3.77539 12.2073 0.577586
2 9.3515 2.58073 7.97445
2 1.37168 12.0287 1.63561
2 12.1366 2.7505 11.0445
2 5.08808 2.66171 11.8056
2 11.617 1.0269 9.15232
2 8.70795 2.74476 2.40006
2 8.11572 11.4464 6.79333
2 2.09445 7.57527 6.83632
2 2.78467 3.03228 11.4075
2 4.17612 3.00689 5.05426
2 1.98101 8.2955 9.33607
2 11.7611 10.2107 2.10191
2 0.554764 7.71455 10.3848
2 3.42742 9.77406 11.1315
2 2.18086 0.505742 11.8916
2 10.3723 2.06636 10.1896
2 9.20161 9.92829 1.07289
2 6.39089 9.93297 4.95899
2 10.5153 0.704498 1.54334
2 10.5637 3.29231 0.310774
2 1.32183 11.7406 7.01952
1 9.83394 8.63723 8.50813
1 3.79709 1.29662 5.92797
1 1.91188 4.37959 9.031
1 7.75041 4.37717 12.0016
1 3.36775 6.29832 11.1708
1 0.421054 7.98389 11.9016
1 9.16072 5.75475 9.10333
1 2.76605 1.02747 1.77714
1 3.27637 6.48236 6.79411
1 7.47531 0.539866 8.26893
1 0.457652 8.16625 6.5751
1 5.67298 8.19075 8.04269
1 6.53548 6.986 2.70012
1 3.98364 3.36526 12.4657
1 5.1548 8.82613 4.78163
1 7.3126 9.78746 10.0799
1 8.29767 8.49839 12.9111
1 3.38708 9.08437 9.55971
1 5.30287 4.12312 5.0833
1 7.88913 3.56808 7.3982
1 2.32658 10.6422 5.90923
1 7.97507 9.94504 6.08593
1 7.11297 3.30242 2.41003
1 6.33582 1.35047 11.876
1 9.63719 2.22854 1.41045
1 9.97148 1.45651 8.79254
1 1.07839 10.4655 0.892501
1 1.4852 2.15081 10.926
1 3.7072 11.1724 11.7411
1 1.33639 1.35645 7.70919
1 10.6608 3.56299 10.9552
1 10.2251 10.9869 2.063
96
 Atoms. Timestep: 12000
2 2.33649 9.33379 6.23102
2 5.47805 8.64237 5.81973
2 6.14434 8.64036 3.51142
2 7.07236 11.1446 8.61987
2 4.68326 2.82238 10.0616
2 1.06919 6.43278 10.9831
2 8.20004 7.05829 4.51556
2 1.94127 1.48065 7.15707
2 11.675 8.46973 7.91519
2 5.69892 9.88731 7.41611
2 6.22404 4.05817 8.37358
2 8.724 5.04527 11.9476
2 2.52827 5.08325 11.8208
2 10.4173 7.40548 11.0312
2 7.33135 8.51548 1.62984
2 2.45868 4.3244 2.12624
2 6.72545 5.83794 3.1838
2 6.85007 7.77001 8.22384
2 2.96423 5.34598 5.00498
2 1.97248 10.4843 3.61416
2 3.84501 5.2348 9.86681
2 6.15303 4.29197 10.8867
2 9.39274 7.73287 6.84976
2 6.88442 9.28345 11.0083
2 9.82083 9.54922 5.81091
2 3.33881 11.436 6.28156
2 5.63167 0.21383 0.792212
2 7.48198 4.77948 1.26228
2 2.78032 7.60878 11.0226
2 11.3836 8.23108 0.787487
2 8.20924 5.00086 6.42309
2 6.3741 3.75594 6.10522
2 4.17598 4.28041 7.36972
2 7.16506 2.09228 8.09328
2 8.88251 7.74817 11.9011
2 4.05545 6.8179 7.23809
2 6.02369 3.33311 3.71209
2 6.45592 3.16472 0.210258
2 4.47828 10.4614 4.79885
2 8.87708 9.7364 8.34294
2 10.0759 8.90892 3.73478
2 2.04989 2.78008 9.50178
2 3.28774 10.8054 0.53192
2 8.70932 4.08987 8.35294
2 0.8607 9.24462 2.46642
2 3.75148 1.25209 8.814
2 3.6451 2.51657 0.279892
2 11.7238 2.76751 8.46339
2 8.40697 3.11758 3.00257
2 9.21026 12.1005 6.62308
2 2.14225 6.60793 7.91011
2 2.08471 1.85622 11.4711
2 4.90195 1.64191 6.15186
2 2.75071 9.23902 9.02671
2 10.3964 10.4642 1.99054
2 10.8601 5.90099 12.404
2 4.92325 9.40848 11.3216
2 3.88258 12.0371 11.5551
2 10.1525 3.16301 10.5884
2 8.72711 10.3628 12.4651
2 7.44488 10.6897 4.67355
2 9.02551 0.81245 1.69936
2 10.3072 3.14114 1.02719
2 1.67348 4.59582 7.21925
1 10.0745 8.96159 7.46204
1 3.71138 0.840066 7.19259
1 5.15337 4.23084 9.62275
1 6.97391 4.50903 12.3657
1 2.56557 6.03955 10.5366
1 11.8794 7.20549 11.9688
1 8.56079 6.64076 5.9406
1 2.233 10.1843 1.81924
1 2.78419 5.44437 6.95778
1 8.00637 0.669709 7.6116
1 1.75553 8.39826 7.7899
1 5.44368 7.64239 7.4902
1 7.21062 7.46952 2.99742
1 2.60961 3.98309 0.324645
1 5.94074 10.0205 4.84662
1 7.20518 9.2942 9.11069
1 7.58405 9.22398 12.5398
1 3.58958 8.75382 10.5099
1 5.55137 2.60177 5.23661
1 7.48959 3.75338 7.33172
1 2.78057 10.7379 4.97554
1 8.80619 10.9304 5.4474
1 7.1539 4.17077 2.73549
1 5.26182 1.84208 0.757427
1 9.27203 2.24941 1.88073
1 10.1077 3.39797 8.71331
1 11.326 8.82668 2.50015
1 3.28905 1.61648 10.3921
1 5.04458 10.8418 12.5895
1 1.29961 2.87416 7.69432
1 10.0922 4.22977 12.268
1 9.53077 11.4276 1.0345
96
 Atoms. Timestep: 14000
2 3.01064 11.2073 6.25079
2 4.74957 10.8461 7.34148
2 9.52037 8.35869 4.59651
2 5.98323 1.59997 10.3686
2 3.94821 2.43095 10.3112
2 0.799643 5.70802 10.9152
2 9.9467 5.80599 5.09066
2 1.79688 3.24681 6.40666
2 11.2345 8.75776 8.8534
2 3.15436 8.38727 8.48813
2 5.24172 3.69359 8.10834
2 8.04176 1.22476 11.7608
2 12.0881 4.80988 1.03318
2 1.69487 9.09149 2.86966
2 9.37852 7.07509 1.86617
2 0.933664 3.52383 3.57344
2 9.0476 5.21639 2.96564
2 5.87376 8.2446 10.0363
2 5.00565 5.55843 5.14392
2 3.75969 10.2884 3.89303
2 3.8076 4.78718 10.6513
2 6.09941 3.99244 10.9052
2 9.3123 7.75209 7.13829
2 7.8927 7.43697 11.7881
2 9.008 9.83738 7.60229
2 3.10365 1.59262 4.15521
2 9.56722 2.61317 3.73712
2 7.48767 3.34073 0.839714
2 2.75432 6.5977 9.23288
2 0.918448 6.73051 1.15966
2 8.5029 4.65852 7.15444
2 6.40491 3.57256 5.59931
2 5.24979 8.99864 5.09213
2 6.5552 5.84234 6.53636
2 10.4448 6.79359 12.4813
2 4.78779 7.80338 7.37086
2 6.64751 3.4717 3.24958
2 5.24904 2.34182 0.598429
2 4.92561 11.6567 4.82262
2 9.06283 8.29085 9.74905
2 11.0236 7.95281 3.11703
2 1.36036 2.79381 9.51725
2 2.62965 10.4189 0.538367
2 8.44596 1.09098 7.17162
2 2.03402 11.4278 3.59255
2 4.43719 10.1128 9.29654
2 2.47096 3.456 1.51492
2 11.1105 3.2215 6.68419
2 9.64188 3.03385 1.32603
2 7.23122 11.1803 8.92374
2 6.95745 7.74387 5.26786
2 2.28565 0.943755 8.98064
2 4.50115 3.9849 3.16767
2 1.96035 10.1663 8.16541
2 11.096 10.0778 2.16522
2 10.6452 4.95642 11.3792
2 1.77578 9.55257 10.1386
2 1.83537 0.617413 11.3658
2 9.5876 3.51979 8.59695
2 9.45484 9.2166 12.367
2 6.82314 11.2453 6.45566
2 10.449 11.8757 0.592329
2 10.3635 2.20484 11.0627
2 1.17437 4.60811 8.61881
1 9.89743 8.46532 8.23795
1 2.33925 3.23712 4.75648
1 4.91017 4.03776 9.73734
1 6.83627 2.47812 11.5701
1 2.06376 5.18243 10.0025
1 11.6277 5.94222 12.4105
1 9.20409 6.28077 6.64279
1 2.02561 10.52 2.03879
1 5.49582 7.38956 5.83954
1 5.61557 11.67 9.69311
1 3.19145 11.6246 7.71006
1 4.74813 8.5547 8.74429
1 9.63343 6.86881 3.47487
1 1.00363 3.68748 2.00127
1 5.51104 10.4572 5.86099
1 7.49156 7.88539 10.5039
1 9.07061 7.6008 0.449308
1 1.19974 8.928 8.55732
1 5.43636 4.27536 4.22215
1 6.60187 4.09971 7.32041
1 3.01446 11.677 4.6416
1 8.11162 11.3308 7.59577
1 8.56515 3.54749 2.4558
1 4.26511 3.27689 1.74373
1 9.54538 1.52396 12.3439
1 9.11792 2.83124 6.88927
1 0.825528 7.7906 2.41091
1 2.44565 1.75406 10.3556
1 1.45186 10.4351 11.4588
1 0.581199 3.21802 7.95805
1 10.3447 3.5265 10.1803
1 10.2317 10.4404 0.955132
96
 Atoms. Timestep: 16000
2 2.48055 0.78614 5.22497
2 5.26774 11.0016 6.67893
2 7.15917 5.47409 3.46811
2 6.36189 0.604824 10.5075
2 3.13002 2.42583 9.85668
2 1.481 5.96158 11.0639
2 10.1424 5.84484 5.25202
2 0.634567 2.46984 6.69815
2 10.4667 8.19355 8.78118
2 3.44625 8.94678 10.3138
2 4.92936 4.77113 8.64873
2 7.63417 1.52995 11.7503
2 1.68455 2.30662 1.13619
2 3.29924 7.22327 2.37855
2 10.1641 7.91675 2.42545
2 1.81176 1.84469 3.52345
2 8.11687 7.75293 12.1923
2 5.53264 7.54728 10.2626
2 5.94392 6.93451 4.94621
2 4.19543 1.27883 3.22154
2 3.17244 4.41782 9.79599
2 5.6174 2.71413 10.3658
2 8.12939 7.03625 7.61682
2 5.14096 8.76836 0.354844
2 9.86141 11.0958 7.49432
2 12.3713 3.63928 5.04599
2 9.74637 4.37047 3.06781
2 8.14574 4.37697 0.899435
2 3.07848 7.43988 9.05882
2 1.36177 5.67418 1.18183
2 7.74485 4.95123 7.59315
2 5.10154 5.02021 5.92345
2 6.59039 9.68426 5.73197
2 6.15409 6.65478 6.98657
2 10.833 7.39769 12.0757
2 5.18649 8.77049 7.48297
2 6.44052 3.68764 3.03502
2 5.41226 1.83927 1.20031
2 5.69688 11.3457 4.00463
2 9.74355 10.0092 9.49485
2 0.921924 5.19055 3.81438
2 1.35203 2.23186 8.74274
2 2.66531 9.62914 12.3862
2 8.96612 2.51232 7.50304
2 3.54998 10.4374 2.17476
2 5.28597 9.91155 9.79861
2 3.86276 3.37485 2.43317
2 10.3677 3.99695 7.98751
2 8.36902 2.42659 2.00296
2 7.58792 11.2661 8.31786
2 7.62621 8.85883 7.32625
2 3.55746 0.682789 8.31478
2 3.89239 5.51093 3.83426
2 12.0721 7.05779 7.63053
2 7.79637 10.6337 10.9236
2 10.5625 4.98971 11.9416
2 1.32441 8.46267 10.0589
2 2.49103 11.5763 10.6044
2 8.51422 4.1602 10.1444
2 10.014 9.34476 11.8769
2 8.08461 11.8202 5.83626
2 9.57074 11.6829 11.894
2 9.26015 2.81612 11.7375
2 1.1859 4.91445 8.63408
1 9.30796 9.31979 8.11427
1 1.4205 2.10271 5.15714
1 4.45962 3.40184 9.57278
1 5.73791 1.7003 11.7019
1 2.30687 5.86123 9.63137
1 11.7601 6.05548 12.0534
1 8.66465 5.73936 6.29594
1 3.65239 8.72152 1.43266
1 6.23384 8.00891 6.16525
1 6.80044 10.5939 9.76907
1 3.64782 11.888 6.72632
1 4.70515 8.5154 9.07995
1 10.9885 4.73609 4.40055
1 2.26272 2.90208 2.4785
1 6.61584 11.2283 5.37977
1 6.59276 8.19591 11.6293
1 9.69433 8.11841 0.732224
1 11.7174 7.66436 9.01387
1 5.32831 5.70343 4.34682
1 5.93065 5.11943 7.42245
1 3.63402 11.4335 3.89625
1 8.88334 0.712992 7.69685
1 8.05019 4.11545 2.50031
1 5.03922 2.63407 2.43803
1 8.97597 1.53349 0.637531
1 8.56667 3.83683 8.59479
1 2.22966 5.96896 2.80793
1 2.37505 1.24918 9.34141
1 2.25774 10.0041 10.8328
1 0.367053 3.40485 7.98931
1 9.19389 4.61933 11.6454
1 9.24864 10.3654 11.0342
96
 Atoms. Timestep: 18000
2 1.66204 11.5911 4.60822
2 10.4392 10.1401 7.685
2 6.48718 6.47043 2.29919
2 3.32786 3.02246 0.622543
2 4.03789 2.25246 11.5633
2 1.57473 4.83385 9.85456
2 11.0219 6.54895 3.84399
2 11.4368 1.50899 5.72446
2 2.96032 9.29155 6.46007
2 2.82789 10.3677 12.1978
2 6.00648 5.5581 8.3436
2 6.63107 11.59 1.95559
2 0.984783 3.41256 12.0484
2 0.838959 8.90193 11.2778
2 11.5304 8.18654 1.65133
2 0.561838 1.70182 2.40213
2 5.90999 6.85747 1.16974
2 5.35091 7.74761 10.4146
2 5.70875 7.62802 4.80556
2 3.65167 0.603334 4.58882
2 3.96846 4.30995 8.73164
2 5.47952 4.5073 11.7498
2 9.32927 8.66666 5.14445
2 5.35999 9.02164 0.912618
2 9.13346 11.3923 6.18837
2 1.00722 3.55689 4.4351
2 10.362 4.57765 3.86419
2 8.73576 4.30542 1.18049
2 4.27204 7.75214 8.03502
2 2.68159 5.08453 12.6406
2 8.4311 5.03174 7.70883
2 6.25037 5.48811 5.47625
2 5.68956 10.5282 6.69839
2 10.6645 8.59846 2.57224
2 0.711461 6.52688 11.4623
2 5.92467 7.50773 7.00524
2 7.56012 4.94094 3.39926
2 4.24357 3.26308 2.56972
2 3.44372 11.1656 7.02238
2 9.60511 10.7577 10.5425
2 1.63483 6.12219 3.76813
2 10.8093 1.09729 8.41309
2 4.1814 10.7991 12.3009
2 8.42225 2.60482 7.69815
2 4.51431 9.72941 4.84416
2 6.88677 8.41028 8.59742
2 4.60244 2.53853 5.84326
2 10.4081 3.25196 8.06897
2 8.31988 2.60409 2.40786
2 7.57371 11.4864 8.3445
2 7.58571 9.36192 6.20195
2 0.743889 9.88453 9.39425
2 4.54056 5.27102 3.48771
2 2.88129 6.3103 7.47431
2 7.26377 9.22329 11.188
2 10.4473 4.08122 12.0264
2 2.74549 8.86482 9.31186
2 3.67707 10.9022 10.3606
2 8.58129 4.07579 10.2505
2 9.58833 8.09574 11.9622
2 4.58083 1.48131 8.85562
2 8.03239 10.9679 12.1595
2 8.16387 2.09866 12.2086
2 1.64652 3.45405 7.51069
1 8.99166 9.82503 6.27234
1 0.892199 1.77234 4.22758
1 5.34112 4.37451 9.90083
1 4.23467 4.2906 1.03396
1 2.15874 4.68555 8.28126
1 0.953706 4.80377 11.5308
1 10.0259 7.87749 3.92377
1 5.49128 10.6051 1.43837
1 5.87374 8.98732 5.72966
1 7.20866 9.88439 9.12858
1 10.6182 10.9342 9.23927
1 5.60605 7.19656 8.65544
1 11.8753 5.12499 4.35463
1 1.46021 2.48345 1.19872
1 5.00935 11.4989 7.73754
1 6.19929 8.09471 11.663
1 11.2346 7.79552 12.1781
1 2.67846 8.10586 7.51126
1 6.10679 5.93155 3.95934
1 6.7406 4.75708 7.0261
1 3.00411 10.6723 5.10804
1 7.81972 1.21135 7.12139
1 8.79472 4.31764 2.91224
1 4.01845 2.31566 4.20897
1 8.07719 0.766022 1.41038
1 9.01658 3.91108 8.73579
1 3.1419 6.14302 3.31893
1 4.78384 1.1225 10.7351
1 2.13587 9.67408 10.6559
1 11.6132 2.16333 7.33002
1 8.70432 3.44446 11.8257
1 8.84502 9.67015 11.4059
96
 Atoms. Timestep: 20000
2 1.95268 0.997327 4.0437
2 9.4765 10.9303 7.80121
2 5.46472 6.95393 4.77262
2 2.44448 3.15101 11.7105
2 5.64921 10.2617 10.5375
2 11.7045 5.25017 8.87666
2 0.837639 4.41647 6.46665
2 11.3596 11.2836 4.19162
2 3.1493 8.49683 6.04915
2 4.4959 8.30911 10.2712
2 5.34557 4.29148 7.68311
2 6.26775 1.13812 2.5378
2 1.64931 1.28146 10.4739
2 1.6386 9.18434 11.5078
2 0.653853 8.25745 1.3303
2 0.782085 0.777982 1.08447
2 8.96766 4.38243 11.9488
2 9.93219 6.00724 10.4083
2 5.8356 9.25967 4.23503
2 4.46654 2.52566 2.6814
2 3.19946 4.69326 7.90598
2 3.98126 3.64392 10.1859
2 9.37918 10.0637 5.4591
2 7.51187 6.69202 11.0263
2 7.22464 11.9883 6.84757
2 0.899776 2.84085 3.83332
2 10.6198 4.16794 4.45268
2 9.00522 3.61511 2.06836
2 4.87962 5.25167 11.1175
2 1.90249 5.80007 10.9037
2 7.65363 4.19598 8.95938
2 6.94033 5.68174 5.9853
2 4.69956 10.5372 5.43754
2 0.492647 8.94282 6.12694
2 11.8398 7.56109 10.8754
2 6.24809 6.22429 9.29947
2 7.99983 5.1494 3.57907
2 4.23198 4.20057 0.959496
2 3.86038 2.11274 5.28976
2 10.2109 11.3671 10.2871
2 1.25569 5.84456 3.95541
2 11.5503 1.0209 7.87082
2 5.78141 10.1524 1.86964
2 7.67534 2.01962 8.48287
2 4.49606 11.64 3.79403
2 5.6476 8.32539 11.9409
2 5.50682 4.65522 3.878
2 10.6273 3.13791 9.03519
2 6.75161 3.31287 1.3584
2 7.96743 9.70856 12.1268
2 6.84888 9.38946 6.4235
2 11.8032 9.49379 8.18557
2 11.0504 8.50785 3.91834
2 1.16823 6.76409 7.68032
2 9.8704 7.67187 11.6325
2 11.1429 2.37533 11.758
2 2.44546 9.07607 8.76215
2 3.46538 10.8275 10.6224
2 8.9538 2.66551 10.8828
2 10.0659 9.8639 12.2787
2 4.00815 1.33682 8.28355
2 8.51445 1.27978 12.3348
2 6.07701 11.6875 12.2646
2 1.59968 3.63322 8.90522
1 8.20902 10.4834 6.60416
1 0.799356 1.01815 2.95071
1 4.06174 3.41336 8.50659
1 3.24622 4.65927 11.5037
1 1.60657 5.14638 7.72794
1 11.5887 5.87795 10.8045
1 10.9557 9.8308 4.81947
1 5.86064 10.9644 3.50672
1 5.06381 8.66515 5.72591
1 6.29413 10.0567 12.0186
1 11.053 10.9815 8.53928
1 5.19052 6.89539 10.806
1 1.01451 4.38837 4.53232
1 1.36672 1.85897 11.9379
1 4.56681 0.903683 6.46064
1 9.03774 6.21694 11.7922
1 11.2764 8.69683 11.7964
1 1.73423 8.3298 7.42612
1 6.61237 5.74873 4.34425
1 6.74909 5.42574 7.8985
1 3.60676 1.5557 3.92648
1 6.46041 1.02125 8.21384
1 9.22834 4.11756 3.76418
1 5.58713 4.05202 2.22009
1 6.98486 1.51244 1.00084
1 8.83692 3.03233 8.98764
1 11.8957 7.30304 2.80241
1 4.74778 11.2532 9.50899
1 2.98191 9.32796 10.3684
1 0.937547 2.16961 8.76264
1 9.52412 2.90047 12.4586
1 9.23922 11.1343 11.8318
96
 Atoms. Timestep: 22000
2 2.06204 2.24402 5.11656
2 9.09621 8.52237 7.71108
2 5.41104 7.53602 4.1166
2 2.91474 4.32911 11.2444
2 5.67113 1.0246 9.47038
2 1.49336 5.94339 8.79631
2 11.9932 5.66528 6.81349
2 11.6349 11.6417 4.67264
2 4.11812 8.63981 5.96727
2 4.59574 8.58225 9.68278
2 6.07861 3.78384 6.32283
2 5.67834 11.0782 2.70211
2 1.19642 3.27837 12.2457
2 1.61437 8.18027 11.1386
2 1.12375 7.58884 2.32686
2 11.1004 2.25933 3.05673
2 8.99006 3.59265 10.559
2 9.70258 5.76564 8.74544
2 4.39128 8.51126 2.83018
2 4.29969 2.70438 2.99943
2 3.8945 4.70871 7.83447
2 3.7685 2.3936 7.93048
2 9.42372 10.1742 5.87647
2 6.7722 6.09381 10.516
2 11.3528 11.665 8.11308
2 11.4806 3.61288 5.7172
2 9.78091 4.98056 4.58605
2 8.0204 4.41359 1.28585
2 4.7317 6.11972 10.1752
2 10.2587 4.7965 1.83021
2 8.11358 4.58823 7.40246
2 6.61111 5.40484 4.77354
2 6.66269 11.767 5.05392
2 1.14725 9.41662 7.11653
2 10.5761 6.80169 11.3012
2 6.03047 6.24098 7.33832
2 7.40221 6.19758 3.10104
2 5.30831 3.92977 11.8926
2 3.62219 11.2654 5.24967
2 9.32472 8.95889 10.2371
2 11.6021 7.10552 4.90272
2 10.6029 10.3464 8.70304
2 3.46289 9.21714 12.366
2 10.251 3.39321 8.75682
2 2.96669 11.1547 2.73977
2 4.52361 10.2934 11.0694
2 6.08616 4.55249 2.71332
2 11.7986 2.75539 9.9658
2 6.94304 2.28972 2.05016
2 7.34774 10.1912 11.0474
2 6.85031 8.39108 6.89916
2 0.899963 7.7251 9.93956
2 1.15919 9.45508 4.61723
2 3.12702 7.37644 7.85795
2 7.76187 7.66111 12.4015
2 10.1458 3.07387 12.2236
2 3.13551 9.36863 8.63835
2 2.77872 11.1003 9.70326
2 8.49194 1.42099 0.984968
2 10.2616 9.18205 0.722758
2 4.86923 11.6915 7.42367
2 7.86282 10.4974 1.38941
2 6.22063 0.902801 12.0702
2 3.0357 2.23096 9.83216
1 8.13973 9.32176 6.73008
1 11.4207 2.2303 4.7876
1 4.8513 3.25833 7.23171
1 4.23642 4.88141 11.1281
1 2.36233 5.55792 7.63961
1 11.0683 6.31603 9.7033
1 11.3233 10.2964 5.82686
1 4.25124 10.0125 2.27473
1 5.60806 8.12789 5.94174
1 6.00869 10.978 10.7287
1 10.0381 8.71093 8.7178
1 5.97289 7.06358 9.1835
1 11.2697 5.37735 5.24997
1 11.3068 3.48242 1.81358
1 5.15672 11.1743 5.8434
1 7.54118 6.11449 12.2952
1 11.4807 7.89832 12.2598
1 2.90727 8.7996 7.07023
1 5.78819 6.06982 3.39332
1 6.90264 5.28104 6.27919
1 3.29029 1.52109 3.84604
1 11.0853 1.99078 8.64261
1 8.9497 5.03552 3.13361
1 5.4427 3.08374 2.21383
1 7.09094 11.903 1.93274
1 8.8696 4.23618 9.02587
1 1.45861 8.1519 3.97583
1 4.04117 1.06974 8.92551
1 2.90549 9.3394 10.6159
1 1.94378 3.20569 10.7124
1 8.74999 2.90008 11.9755
1 8.21504 9.11924 11.9389
96
 Atoms. Timestep: 24000
2 2.42255 11.8595 2.81045
2 8.87358 10.6382 8.15384
2 6.22869 5.94152 4.27773