LAMMPS (2 Aug 2023 - Update 3)
units metal
boundary p p p
atom_style full
pair_style tersoff
neighbor 2.0 bin
neigh_modify delay 1




read_data SiO.data
Reading data file ...
  orthogonal box = (0 0 0) to (12.589463 12.589463 13.222096)
  1 by 1 by 1 MPI processor grid
WARNING: Atom style in data file atom-ID molecule-ID atom-type q x y z differs from currently defined atom style full (../read_data.cpp:621)
  reading atoms ...
  96 atoms
Finding 1-2 1-3 1-4 neighbors ...
  special bond factors lj:    0        0        0       
  special bond factors coul:  0        0        0       
     0 = max # of 1-2 neighbors
     0 = max # of 1-3 neighbors
     0 = max # of 1-4 neighbors
     1 = max # of special neighbors
  special bonds CPU = 0.000 seconds
  read_data CPU = 0.003 seconds
replicate 1 1 1
Replication is creating a 1x1x1 = 1 times larger system...
  orthogonal box = (0 0 0) to (12.589463 12.589463 13.222096)
  1 by 1 by 1 MPI processor grid
  96 atoms
Finding 1-2 1-3 1-4 neighbors ...
  special bond factors lj:    0        0        0       
  special bond factors coul:  0        0        0       
     0 = max # of 1-2 neighbors
     0 = max # of 1-3 neighbors
     0 = max # of 1-4 neighbors
     1 = max # of special neighbors
  special bonds CPU = 0.000 seconds
  replicate CPU = 0.001 seconds

pair_coeff * *  /root/Desktop/host/job1/SiO.tersoff Si O
Reading tersoff potential file /root/Desktop/host/job1/SiO.tersoff with DATE: 2010-08-16



group Si type 1
32 atoms in group Si
group O type 2
64 atoms in group O
#create_bonds many SiO SiO 1 0.5 10

dump dmp all xyz 2000 dump.lammpstrj



variable apot equal pe
# first number: number of steps to get current temp
# second number: calculate average n number of temp read above.
# third number: temp record (this must be larger than the one above )

variable atemp equal temp
fix temp_info all ave/time 10 200 2000 v_atemp file temperature.dat

#The cutoff used for pairwise computation (any pair style) and the
#associated neighbor list is the maximum cutoff that any compute
#can use. Atoms don't know any info about their neighbors
#further away than that.

# compute coord number
compute coor12 Si coord/atom cutoff 2.5 group O
compute coor11 Si coord/atom cutoff 2.5 group Si
compute coor22 O coord/atom cutoff 2.0 group O

compute sumcoor12 all reduce ave c_coor12
compute sumcoor11 all reduce ave c_coor11
compute sumcoor22 all reduce ave c_coor22


fix 12coord all ave/time  10 200 2000 c_sumcoor12 file Si-O_coord_number.dat
fix 11coord all ave/time  10 200 2000  c_sumcoor11 file Si-Si_coord_number.dat
fix 22coord all ave/time  10 200 2000  c_sumcoor22 file O-O_coord_number.dat




# unit cell information
variable avol equal vol
variable alx equal lx
variable aly equal ly
variable alz equal lz
fix cell_info all ave/time 10 200 2000 v_avol v_alx v_aly v_alz file cell_volume.dat


fix potential_info all ave/time 10 200 2000 v_apot file potential-energy.dat
thermo 1000



velocity all create 6000 1112354 mom yes rot no dist gaussian
fix npt1 all npt temp 6000 5000 0.1 iso 0 0  1
timestep 0.001
#run 500
run 80000
Neighbor list info ...
  update: every = 1 steps, delay = 1 steps, check = yes
  max neighbors/atom: 2000, page size: 100000
  master list distance cutoff = 4.8
  ghost atom cutoff = 4.8
  binsize = 2.4, bins = 6 6 6
  4 neighbor lists, perpetual/occasional/extra = 1 3 0
  (1) pair tersoff, perpetual
      attributes: full, newton on
      pair build: full/bin
      stencil: full/bin/3d
      bin: standard
  (2) compute coord/atom, occasional, copy from (1)
      attributes: full, newton on
      pair build: copy
      stencil: none
      bin: none
  (3) compute coord/atom, occasional, copy from (1)
      attributes: full, newton on
      pair build: copy
      stencil: none
      bin: none
  (4) compute coord/atom, occasional, copy from (1)
      attributes: full, newton on
      pair build: copy
      stencil: none
      bin: none
Per MPI rank memory allocation (min/avg/max) = 6.021 | 6.021 | 6.021 Mbytes
   Step          Temp          E_pair         E_mol          TotEng         Press          Volume    
         0   6000          -638.06385      0             -564.38556      73800.118      2095.6304    
      1000   5793.5044     -543.31741      0             -472.17483     -24921.372      2275.9793    
      2000   5495.5401     -546.25098      0             -478.76732      2786.0334      2367.9696    
      3000   5809.7672     -560.64685      0             -489.30457     -7421.3172      2322.5932    
      4000   6250.7594     -548.43938      0             -471.68185     -13954.723      2362.6436    
      5000   5642.7592     -543.66154      0             -474.37007     -11883.306      2294.7687    
      6000   5428.6857     -531.96477      0             -465.30206     -29826.406      1948.3254    
      7000   5919.7528     -506.47474      0             -433.78187      14535.259      1945.6895    
      8000   6259.3454     -509.44671      0             -432.58374     -27435.88       1627.5963    
      9000   5451.1915     -526.2148       0             -459.27572      55359.888      1642.3575    
     10000   6863.0799     -527.89114      0             -443.61448      43662.015      1809.4172    
     11000   5068.874      -532.00154      0             -469.75721      15602.44       1708.2948    
     12000   7096.1674     -529.59415      0             -442.45524     -27523.82       1802.7479    
     13000   6139.1493     -532.40597      0             -457.01897     -5943.2158      1676.737     
     14000   5609.4318     -531.10615      0             -462.22393      2081.2678      1686.6808    
     15000   6435.4227     -541.03237      0             -462.00722      49418.824      1477.7583    
     16000   5438.3982     -547.70415      0             -480.92218      57610.971      1590.1297    
     17000   5776.2301     -534.26179      0             -463.33134     -42728.793      1581.9875    
     18000   5190.7728     -529.27984      0             -465.53863     -8415.1083      1542.4037    
     19000   5463.6568     -527.096        0             -460.00386     -32115.016      1484.9844    
     20000   6139.96       -548.34519      0             -472.94824     -53860.813      1537.9196    
     21000   5464.2534     -549.0885       0             -481.98903      20287.459      1534.8316    
     22000   5511.756      -531.70068      0             -464.01789      162.19874      1417.5636    
     23000   5939.35       -544.33012      0             -471.3966      -18769.69       1458.3387    
     24000   6187.2307     -531.52275      0             -455.54533     -24305.804      1630.0772    
     25000   5121.9736     -531.54911      0             -468.65274     -9672.3877      1503.6888    
     26000   5176.6866     -529.1467       0             -465.57847      33305.415      1540.5472    
     27000   5388.11       -541.82433      0             -475.65988     -11000.711      1701.5236    
     28000   6123.8301     -545.78481      0             -470.58593     -13960.166      1549.7272    
     29000   5227.5693     -533.95541      0             -469.76235     -25725.538      1561.6588    
     30000   6486.7722     -547.44973      0             -467.79403      76476.261      1637.5692    
     31000   5638.7346     -539.78235      0             -470.5403      -31998.021      1688.0515    
     32000   5164.5518     -544.49744      0             -481.07822     -21775.979      1745.4179    
     33000   5854.6374     -543.89812      0             -472.00484      37145.355      1461.4671    
     34000   5625.6528     -549.74402      0             -480.66261      78745.184      1464.7859    
     35000   5164.0603     -551.66151      0             -488.24833     -20579.65       1534.725     
     36000   5172.0535     -552.16088      0             -488.64954     -37063.89       1555.3428    
     37000   5888.7591     -548.99181      0             -476.67953      3983.8565      1490.7045    
     38000   5647.239      -543.51262      0             -474.16614     -25015.733      1425.7983    
     39000   6253.7747     -540.56894      0             -463.77437      12653.318      1476.9732    
     40000   5698.9959     -535.48696      0             -465.50492      43234.709      1397.4744    
     41000   5683.1655     -538.80807      0             -469.02042     -51860.311      1492.4487    
     42000   5355.9633     -519.01154      0             -453.24184     -56709.466      1430.3461    
     43000   6242.0323     -538.63683      0             -461.98646     -23393.028      1387.1433    
     44000   5158.165      -527.13841      0             -463.79762     -16030.095      1542.2872    
     45000   5242.8384     -541.51256      0             -477.13201      44931.9        1387.0308    
     46000   5844.4543     -544.48894      0             -472.72072      15796.197      1513.7744    
     47000   5063.5019     -545.5533       0             -483.37494      40878.495      1436.6931    
     48000   5311.846      -551.7852       0             -486.55725     -12080.92       1452.4543    
     49000   5670.9285     -547.46918      0             -477.8318      -30434.704      1495.3345    
     50000   5433.268      -556.80294      0             -490.08396      46919.467      1525.1168    
     51000   5753.951      -547.98835      0             -477.33148     -33921.606      1438.9915    
     52000   5263.4047     -540.17989      0             -475.54678      77884.233      1367.9647    
     53000   5402.6238     -535.16075      0             -468.81807      14067.735      1473.5629    
     54000   5415.7106     -549.66702      0             -483.16364      27552.842      1362.9592    
     55000   5398.5664     -546.3967       0             -480.10385      62057.439      1418.5092    
     56000   5338.5833     -537.44109      0             -471.88481      6688.2681      1436.2082    
     57000   5138.1079     -548.24117      0             -485.14668     -4088.1794      1471.7202    
     58000   4607.7832     -552.89625      0             -496.31399     -34457.106      1393.006     
     59000   5661.2962     -544.50658      0             -474.98749     -21380.06       1468.726     
     60000   5145.4095     -547.60269      0             -484.41853     -44283.609      1478.9014    
     61000   5329.8928     -550.90157      0             -485.45201     -1909.7745      1536.9124    
     62000   4859.7512     -560.42956      0             -500.75321      34884.657      1485.4032    
     63000   5171.6811     -552.18982      0             -488.68306      64086.571      1512.7497    
     64000   5720.2111     -544.0726       0             -473.83005      33005.629      1628.6713    
     65000   4956.0621     -548.13001      0             -487.27099     -4283.2245      1610.7863    
     66000   5030.5448     -553.64602      0             -491.87237     -30265.017      1778.7167    
     67000   5252.8863     -555.10948      0             -490.60554      15290.26       1503.7092    
     68000   5748.8059     -554.878        0             -484.28431     -7016.4591      1614.97      
     69000   4996.9725     -557.89986      0             -496.53847     -36208.629      1679.7098    
     70000   4426.2876     -556.84283      0             -502.48928      6736.3837      1540.9088    
     71000   4943.5074     -550.55832      0             -489.85346      3732.0476      1547.403     
     72000   4683.3604     -563.3922       0             -505.88188     -8683.1564      1440.0303    
     73000   4960.5748     -544.96592      0             -484.05148      5918.4213      1498.5642    
     74000   4871.8813     -558.33159      0             -498.50628      2504.2558      1536.9935    
     75000   5247.8662     -552.83281      0             -488.39051     -49389.015      1460.5484    
     76000   5036.8061     -559.20345      0             -497.35292     -19627.002      1484.2656    
     77000   4775.1357     -556.01938      0             -497.38208     -2359.6062      1449.1376    
     78000   5908.9747     -550.49817      0             -477.93765      18496.185      1407.0052    
     79000   5284.8125     -559.52634      0             -494.63035     -28720.895      1472.4359    
     80000   3958.4701     -563.00127      0             -514.39239     -33252.058      1366.2184    
Loop time of 6.77205 on 1 procs for 80000 steps with 96 atoms

Performance: 1020.665 ns/day, 0.024 hours/ns, 11813.256 timesteps/s, 1.134 Matom-step/s
98.1% CPU use with 1 MPI tasks x no OpenMP threads

MPI task timing breakdown:
Section |  min time  |  avg time  |  max time  |%varavg| %total
---------------------------------------------------------------
Pair    | 5.5577     | 5.5577     | 5.5577     |   0.0 | 82.07
Bond    | 0.002587   | 0.002587   | 0.002587   |   0.0 |  0.04
Neigh   | 0.45142    | 0.45142    | 0.45142    |   0.0 |  6.67
Comm    | 0.20739    | 0.20739    | 0.20739    |   0.0 |  3.06
Output  | 0.011733   | 0.011733   | 0.011733   |   0.0 |  0.17
Modify  | 0.50499    | 0.50499    | 0.50499    |   0.0 |  7.46
Other   |            | 0.03626    |            |       |  0.54

Nlocal:             96 ave          96 max          96 min
Histogram: 1 0 0 0 0 0 0 0 0 0
Nghost:            532 ave         532 max         532 min
Histogram: 1 0 0 0 0 0 0 0 0 0
Neighs:              0 ave           0 max           0 min
Histogram: 1 0 0 0 0 0 0 0 0 0
FullNghs:         3092 ave        3092 max        3092 min
Histogram: 1 0 0 0 0 0 0 0 0 0

Total # of neighbors = 3092
Ave neighs/atom = 32.208333
Ave special neighs/atom = 0
Neighbor list builds = 3733
Dangerous builds = 0

fix npt1 all npt temp 5000 4000 0.1 iso 0 0 1
run 80000
Per MPI rank memory allocation (min/avg/max) = 8.549 | 8.549 | 8.549 Mbytes
   Step          Temp          E_pair         E_mol          TotEng         Press          Volume    
     80000   3958.4701     -563.00127      0             -514.39239     -33252.058      1366.2184    
     81000   4686.8958     -563.08056      0             -505.52682     -7746.8024      1400.5115    
     82000   4130.0163     -550.17947      0             -499.46405     -27468.868      1617.9423    
     83000   4466.2862     -554.63998      0             -499.79526     -46005.848      1450.9323    
     84000   4981.8895     -560.83171      0             -499.65553     -5550.4781      1436.1872    
     85000   4986.5656     -555.34428      0             -494.11068     -15725.121      1436.8143    
     86000   4441.3342     -555.64164      0             -501.10333     -11504.598      1445.0268    
     87000   5791.9056     -561.58201      0             -490.45907      36174.777      1340.0394    
     88000   4748.6951     -552.24317      0             -493.93055      17090.143      1430.33      
     89000   4464.2352     -552.05378      0             -497.23425     -18832.396      1575.0352    
     90000   4973.7708     -541.19522      0             -480.11874      38847.362      1385.5113    
     91000   5102.2402     -554.72676      0             -492.07271      29581.206      1422.5521    
     92000   4806.35       -554.75745      0             -495.73685      1438.114       1490.293     
     93000   4744.0381     -560.55945      0             -502.30402     -35887.907      1523.4108    
     94000   4629.4605     -555.28964      0             -498.44119     -56928.196      1498.7954    
     95000   4930.9026     -557.3282       0             -496.77813     -15208.398      1438.7069    
     96000   5335.7485     -550.79354      0             -485.27208      43091.924      1478.229     
     97000   5189.4775     -553.46301      0             -489.73772     -3417.4977      1561.5057    
     98000   4712.1527     -554.11783      0             -496.25394      10805.375      1485.7975    
     99000   4437.1876     -559.79573      0             -505.30834     -18187.962      1489.5166    
    100000   4945.8029     -553.06087      0             -492.32783      12454.633      1462.0544    
    101000   5438.3461     -553.17233      0             -486.391        11599.545      1526.5862    
    102000   4490.1485     -549.19884      0             -494.0611      -32364.776      1541.5833    
    103000   4517.8038     -555.60994      0             -500.1326      -73234.797      1636.0476    
    104000   4420.5112     -559.65466      0             -505.37205     -18659.187      1555.4976    
    105000   4113.9131     -553.29413      0             -502.77646      12864.216      1454.4741    
    106000   4779.3722     -567.14193      0             -508.45261      38576.937      1471.5826    
    107000   4469.763      -554.05603      0             -499.16862     -17183.882      1521.7845    
    108000   4832.0539     -568.20337      0             -508.86713     -23687.821      1602.1034    
    109000   4210.9178     -566.31937      0             -514.6105       33115.173      1515.6319    
    110000   4120.1709     -564.40578      0             -513.81126     -14744.181      1542.5181    
    111000   4614.9314     -563.56125      0             -506.89121      31651.554      1442.3999    
    112000   5055.7582     -562.33602      0             -500.25275      156.48862      1531.9048    
    113000   4487.9831     -565.17431      0             -510.06316      21367.693      1543.7054    
    114000   4627.3227     -567.63711      0             -510.81492     -6242.9759      1470.7985    
    115000   4830.958      -570.16338      0             -510.8406      -10453.593      1529.9785    
    116000   4498.4372     -560.70821      0             -505.46869      363.64569      1533.4251    
    117000   4802.0942     -557.89013      0             -498.92179     -1112.2446      1599.3587    
    118000   4714.6289     -569.43117      0             -511.53688     -19952.121      1546.8521    
    119000   4746.5628     -561.52443      0             -503.238       -11603.763      1572.074     
    120000   4495.9225     -565.96877      0             -510.76013      20282.527      1482.1562    
    121000   4010.915      -570.57479      0             -521.3219       12959.166      1543.0996    
    122000   4673.4914     -563.32871      0             -505.93957     -1637.0316      1595.2903    
    123000   5024.6102     -561.66434      0             -499.96356      13002.375      1477.5646    
    124000   4769.8048     -570.18508      0             -511.61324      7065.1545      1498.9357    
    125000   5008.5363     -565.42796      0             -503.92457      35958.862      1502.165     
    126000   4595.3598     -567.76863      0             -511.33893      195.25288      1539.8312    
    127000   4214.964      -568.02986      0             -516.27131      4828.5741      1507.5459    
    128000   5172.0773     -573.96711      0             -510.45548     -1358.7758      1457.3316    
    129000   4028.921      -563.83446      0             -514.36046      9262.046       1503.8634    
    130000   4636.6855     -565.10114      0             -508.16397     -11964.758      1566.622     
    131000   4507.6512     -572.21751      0             -516.86484      5026.5665      1484.0855    
    132000   4578.387      -572.35437      0             -516.13309      25387.294      1506.0803    
    133000   4529.548      -564.09847      0             -508.47692     -8380.3695      1533.3757    
    134000   4523.2        -573.88429      0             -518.34069      47786.65       1543.8442    
    135000   4293.6718     -574.36644      0             -521.64138      13215.487      1487.784     
    136000   4417.506      -577.07759      0             -522.83188      37308.467      1621.8216    
    137000   4939.5914     -566.59214      0             -505.93537     -13841.316      1612.1598    
    138000   4447.8994     -571.52771      0             -516.90878      1282.4529      1636.8342    
    139000   4690.8266     -566.77531      0             -509.1733      -20383.574      1607.397     
    140000   4438.4723     -556.07995      0             -501.57678     -48047.651      1571.7836    
    141000   4334.6337     -571.12127      0             -517.89321      34256.609      1495.1809    
    142000   4214.5886     -557.55325      0             -505.7993      -3249.1291      1639.917     
    143000   4537.3109     -566.75021      0             -511.03334      15437.712      1573.1796    
    144000   4021.2912     -565.17248      0             -515.79218     -14063.728      1709.0324    
    145000   4165.0491     -561.65502      0             -510.50941      6193.8717      1655.4736    
    146000   4122.5081     -568.44923      0             -517.82601     -9322.3742      1522.789     
    147000   3990.7178     -570.80387      0             -521.799        31295.537      1510.4932    
    148000   3557.2679     -576.2301       0             -532.54787     -11542.285      1511.554     
    149000   4293.1133     -576.71768      0             -523.99947      1978.1345      1516.6552    
    150000   4715.9758     -569.56499      0             -511.65416     -12573.206      1545.3845    
    151000   4526.9741     -581.27678      0             -525.68683     -20402.602      1574.07      
    152000   3491.842      -569.79109      0             -526.91227     -34881.808      1562.033     
    153000   4570.5827     -572.84119      0             -516.71574     -13732.916      1513.4775    
    154000   3439.7933     -570.19528      0             -527.9556       17146.844      1427.8994    
    155000   3778.3607     -574.87965      0             -528.48246      35404.261      1425.8199    
    156000   3914.5668     -577.97909      0             -529.90933     -9358.1296      1522.7837    
    157000   3336.4021     -571.05225      0             -530.08219     -14398.133      1555.1828    
    158000   4425.1548     -571.90004      0             -517.56041     -15082.228      1524.1931    
    159000   4307.5682     -578.785        0             -525.88929      36755.814      1495.8739    
    160000   3964.3965     -576.95982      0             -528.27817      322.54875      1471.2326    
Loop time of 6.54788 on 1 procs for 80000 steps with 96 atoms

Performance: 1055.610 ns/day, 0.023 hours/ns, 12217.703 timesteps/s, 1.173 Matom-step/s
99.4% CPU use with 1 MPI tasks x no OpenMP threads

MPI task timing breakdown:
Section |  min time  |  avg time  |  max time  |%varavg| %total
---------------------------------------------------------------
Pair    | 5.4529     | 5.4529     | 5.4529     |   0.0 | 83.28
Bond    | 0.0025622  | 0.0025622  | 0.0025622  |   0.0 |  0.04
Neigh   | 0.40492    | 0.40492    | 0.40492    |   0.0 |  6.18
Comm    | 0.21096    | 0.21096    | 0.21096    |   0.0 |  3.22
Output  | 0.010217   | 0.010217   | 0.010217   |   0.0 |  0.16
Modify  | 0.43099    | 0.43099    | 0.43099    |   0.0 |  6.58
Other   |            | 0.03528    |            |       |  0.54

Nlocal:             96 ave          96 max          96 min
Histogram: 1 0 0 0 0 0 0 0 0 0
Nghost:            540 ave         540 max         540 min
Histogram: 1 0 0 0 0 0 0 0 0 0
Neighs:              0 ave           0 max           0 min
Histogram: 1 0 0 0 0 0 0 0 0 0
FullNghs:         2828 ave        2828 max        2828 min
Histogram: 1 0 0 0 0 0 0 0 0 0

Total # of neighbors = 2828
Ave neighs/atom = 29.458333
Ave special neighs/atom = 0
Neighbor list builds = 3282
Dangerous builds = 0

fix npt1 all npt temp 4000 4000 0.1 iso 0 0 1
run 80000
Per MPI rank memory allocation (min/avg/max) = 8.549 | 8.549 | 8.549 Mbytes
   Step          Temp          E_pair         E_mol          TotEng         Press          Volume    
    160000   3964.3965     -576.95982      0             -528.27817      322.54875      1471.2326    
    161000   4674.0203     -580.29026      0             -522.89463     -4884.4458      1431.2065    
    162000   4583.36       -570.27775      0             -513.9954       59692.837      1417.3081    
    163000   3988.2121     -580.90356      0             -531.92945      10950.985      1451.703     
    164000   4507.6769     -567.63637      0             -512.28338     -19469.796      1552.7028    
    165000   4167.3588     -574.80452      0             -523.63054     -23528.357      1563.1233    
    166000   4351.5604     -571.86893      0             -518.43301      13378.549      1554.8559    
    167000   3309.0431     -571.22544      0             -530.59134      12745.742      1561.5499    
    168000   4084.6311     -574.70011      0             -524.54201     -33472.143      1598.886     
    169000   4337.1573     -573.01287      0             -519.75382      11291.887      1535.5332    
    170000   3871.2149     -579.45719      0             -531.91977      4676.6911      1522.3673    
    171000   4318.1257     -565.27409      0             -512.24874      24085.885      1543.2941    
    172000   4072.8645     -577.68318      0             -527.66957      3032.2721      1499.4887    
    173000   3953.597      -578.7946       0             -530.24556     -34275.065      1536.3825    
    174000   3928.3809     -570.53743      0             -522.29803     -23623.957      1670.0241    
    175000   4513.586      -570.68951      0             -515.26396     -11135.99       1602.585     
    176000   4195.1993     -570.98294      0             -519.46709     -27810.419      1553.7075    
    177000   4215.9998     -578.61133      0             -526.84006      7028.7841      1552.4702    
    178000   3712.4224     -579.64337      0             -534.05588     -22165.957      1532.3953    
    179000   3984.4836     -579.71283      0             -530.78452     -1982.8761      1478.455     
    180000   4081.3307     -572.88529      0             -522.76772     -21133.992      1581.8976    
    181000   4089.1638     -577.08505      0             -526.87129     -1533.8647      1557.9106    
    182000   3959.3063     -577.90247      0             -529.28332     -44977.372      1556.9418    
    183000   4416.618      -581.21174      0             -526.97693      20268.871      1514.5074    
    184000   4736.4028     -578.76213      0             -520.60046     -13577.954      1531.4515    
    185000   3724.086      -577.20499      0             -531.47428      26844.888      1500.9478    
    186000   3515.4459     -578.13392      0             -534.96525      14387.408      1527.8032    
    187000   3976.7292     -573.53432      0             -524.70123      32015.65       1487.9298    
    188000   3848.7632     -580.78374      0             -533.52203     -21841.062      1515.851     
    189000   3632.1071     -578.72951      0             -534.12827     -20391.379      1539.5756    
    190000   5030.1078     -576.59254      0             -514.82425     -31299.996      1580.3487    
    191000   4348.1067     -581.27349      0             -527.87998     -43282.538      1597.073     
    192000   3872.8656     -583.56262      0             -536.00494      49937.495      1529.7455    
    193000   4409.0215     -579.41247      0             -525.27095     -30472.007      1517.5744    
    194000   3666.3446     -578.62227      0             -533.60061      34018.609      1523.6446    
    195000   3683.3197     -567.28634      0             -522.05623      13373.894      1496.0966    
    196000   3552.4391     -571.9046       0             -528.28167     -28574.661      1474.3921    
    197000   4037.3076     -580.71013      0             -531.13315      35023.338      1500.8664    
    198000   3981.9391     -570.46672      0             -521.56964     -38928.606      1536.8016    
    199000   3644.6833     -583.20518      0             -538.44952     -5845.8767      1508.1487    
    200000   4212.9798     -581.53455      0             -529.80037      49992.255      1513.262     
    201000   3943.616      -575.80014      0             -527.37367     -27495.503      1471.7499    
    202000   3777.1332     -571.38972      0             -525.00761     -32866.163      1491.215     
    203000   3599.8939     -574.1792       0             -529.97354     -25990.844      1510.3814    
    204000   4170.9912     -574.34408      0             -523.1255      -13642.837      1462.5542    
    205000   3894.3821     -570.626        0             -522.8041       27610.413      1464.3608    
    206000   3366.1677     -572.17022      0             -530.83464      37801.312      1555.9506    
    207000   3325.8083     -578.1674       0             -537.32742     -41387.12       1471.436     
    208000   4256.3704     -573.12069      0             -520.85368      7767.2264      1484.8512    
    209000   3791.2685     -580.07806      0             -533.52237     -4626.3131      1522.2733    
    210000   4046.1784     -573.34637      0             -523.66045      29880.83       1527.197     
    211000   3837.4736     -574.61494      0             -527.49186     -40757.645      1545.603     
    212000   4290.6938     -572.31788      0             -519.62939      9365.0913      1586.4308    
    213000   4123.6561     -577.03148      0             -526.39417     -18318.185      1544.6971    
    214000   4046.4284     -574.35019      0             -524.66121      32186.009      1502.6464    
    215000   4962.6588     -579.29554      0             -518.35551     -38484.396      1538.3998    
    216000   4137.0527     -572.19028      0             -521.38846     -12169.791      1548.7117    
    217000   4752.4903     -574.62585      0             -516.26663     -30258.578      1650.7891    
    218000   3871.1866     -570.22855      0             -522.69149     -24745.477      1577.8017    
    219000   3938.4246     -576.85822      0             -528.4955      -15248.222      1617.085     
    220000   4287.0685     -570.15062      0             -517.50665     -4310.6125      1544.5935    
    221000   4111.2375     -565.68453      0             -515.19971     -29751.048      1566.1518    
    222000   4476.6873     -569.26029      0             -514.28786     -12639.194      1589.1852    
    223000   3805.4332     -571.02404      0             -524.29441     -19889.729      1490.1288    
    224000   3376.2962     -568.40876      0             -526.94881      34119.055      1517.3308    
    225000   3967.1089     -573.84398      0             -525.12902      26846.835      1459.8716    
    226000   4095.7833     -569.74251      0             -519.44746      66458.929      1446.1862    
    227000   3853.5165     -573.44302      0             -526.12294      42401.688      1455.3716    
    228000   3729.1091     -573.78316      0             -527.99077     -6941.6253      1482.9854    
    229000   4282.1631     -568.27288      0             -515.68914      3027.0996      1462.6249    
    230000   4226.0435     -575.41826      0             -523.52366     -19183.422      1450.6577    
    231000   4553.0042     -573.61412      0             -517.70453     -1755.3097      1472.7178    
    232000   3536.1728     -571.17374      0             -527.75055     -20384.468      1424.2639    
    233000   3986.7554     -571.64885      0             -522.69263      1703.0624      1454.354     
    234000   3540.1868     -577.8722       0             -534.39972      28440.266      1464.889     
    235000   3521.7241     -568.28056      0             -525.03479     -50588.82       1477.8921    
    236000   4153.3158     -567.48033      0             -516.4788       16916.924      1416.8225    
    237000   4257.8248     -581.81973      0             -529.53486     -1719.3856      1432.2182    
    238000   4389.1485     -566.89353      0             -512.99605      51009.58       1421.9519    
    239000   4009.0212     -575.59542      0             -526.36579     -13139.526      1477.0611    
    240000   3927.2954     -573.77422      0             -525.54816     -30750.875      1507.7054    
Loop time of 6.5657 on 1 procs for 80000 steps with 96 atoms

Performance: 1052.743 ns/day, 0.023 hours/ns, 12184.528 timesteps/s, 1.170 Matom-step/s
99.2% CPU use with 1 MPI tasks x no OpenMP threads

MPI task timing breakdown:
Section |  min time  |  avg time  |  max time  |%varavg| %total
---------------------------------------------------------------
Pair    | 5.4859     | 5.4859     | 5.4859     |   0.0 | 83.55
Bond    | 0.0025309  | 0.0025309  | 0.0025309  |   0.0 |  0.04
Neigh   | 0.38238    | 0.38238    | 0.38238    |   0.0 |  5.82
Comm    | 0.21009    | 0.21009    | 0.21009    |   0.0 |  3.20
Output  | 0.0094814  | 0.0094814  | 0.0094814  |   0.0 |  0.14
Modify  | 0.43974    | 0.43974    | 0.43974    |   0.0 |  6.70
Other   |            | 0.03554    |            |       |  0.54

Nlocal:             96 ave          96 max          96 min
Histogram: 1 0 0 0 0 0 0 0 0 0
Nghost:            532 ave         532 max         532 min
Histogram: 1 0 0 0 0 0 0 0 0 0
Neighs:              0 ave           0 max           0 min
Histogram: 1 0 0 0 0 0 0 0 0 0
FullNghs:         2760 ave        2760 max        2760 min
Histogram: 1 0 0 0 0 0 0 0 0 0

Total # of neighbors = 2760
Ave neighs/atom = 28.75
Ave special neighs/atom = 0
Neighbor list builds = 3061
Dangerous builds = 0

fix npt1 all npt temp 4000 3000 0.1 iso 0 0  1
run 80000
Per MPI rank memory allocation (min/avg/max) = 8.549 | 8.549 | 8.549 Mbytes
   Step          Temp          E_pair         E_mol          TotEng         Press          Volume    
    240000   3927.2954     -573.77422      0             -525.54816     -30750.875      1507.7054    
    241000   3822.5512     -567.62575      0             -520.68592     -17406.795      1510.9327    
    242000   3762.5995     -577.56201      0             -531.35836     -37337.309      1503.5871    
    243000   4067.9045     -567.67538      0             -517.72268     -39849.297      1451.2035    
    244000   4077.1339     -569.62221      0             -519.55618      18474.553      1296.6755    
    245000   3485.174      -569.71191      0             -526.91497      5910.4371      1319.0564    
    246000   3605.5523     -569.12857      0             -524.85342      650.29829      1330.4636    
    247000   3841.5676     -564.71718      0             -517.54383     -61882.583      1373.154     
    248000   3790.1656     -577.72161      0             -531.17947     -10801.632      1385.3763    
    249000   3851.9911     -562.7917       0             -515.49035     -26947.432      1504.6885    
    250000   3696.0437     -571.04072      0             -525.65436      11600.465      1510.1802    
    251000   3878.6046     -575.54437      0             -527.91622      5405.3923      1509.1055    
    252000   3761.1556     -574.86361      0             -528.67769     -7223.1178      1539.2697    
    253000   3854.2637     -567.42815      0             -520.09889     -73038.727      1550.6406    
    254000   3768.8556     -580.27768      0             -533.99721     -30925.228      1499.965     
    255000   4155.1384     -580.32397      0             -529.30006     -39003.63       1516.3245    
    256000   3646.2616     -580.49931      0             -535.72426      18326.797      1485.2122    
    257000   3919.0797     -577.52569      0             -529.40052     -24633.256      1510.0948    
    258000   3991.1192     -580.61611      0             -531.60631     -4825.2064      1466.8199    
    259000   4114.9156     -574.45309      0             -523.92311     -15911.707      1510.8224    
    260000   3449.0299     -577.29468      0             -534.94158     -23955.793      1533.9888    
    261000   4011.396      -577.32502      0             -528.06622      16068.58       1456.4736    
    262000   3990.2291     -581.1627       0             -532.16383     -28124.589      1468.7985    
    263000   3524.3058     -578.75502      0             -535.47755      22770.23       1441.5901    
    264000   3678.0287     -577.16143      0             -531.99629     -21638.141      1500.7046    
    265000   3712.4412     -585.38495      0             -539.79724     -9427.8321      1459.3059    
    266000   4174.5679     -580.56038      0             -529.29788      24438.426      1519.9209    
    267000   3920.378      -581.49033      0             -533.34921     -22002.476      1502.1119    
    268000   3934.5577     -585.46378      0             -537.14853      6722.1615      1481.4356    
    269000   3611.3184     -587.33038      0             -542.98443     -12637.077      1460.307     
    270000   3740.0984     -581.44169      0             -535.51435      16904.343      1449.1187    
    271000   3710.3352     -583.60345      0             -538.04159      2854.3512      1486.1698    
    272000   3654.287      -583.86042      0             -538.98682     -26472.638      1499.1098    
    273000   3904.1578     -578.2932       0             -530.35125     -13079.585      1484.3401    
    274000   3442.7466     -581.96561      0             -539.68967     -18165.101      1545.6482    
    275000   2918.0859     -582.74889      0             -546.91563      2622.6417      1539.029     
    276000   3940.1542     -581.25413      0             -532.87017     -46383.095      1561.1208    
    277000   3044.2867     -579.97451      0             -542.59154     -14758.579      1559.9734    
    278000   3825.105      -580.4069       0             -533.4357      -34784.611      1533.3369    
    279000   3854.1677     -588.30707      0             -540.97899      14297.315      1511.1029    
    280000   3041.5067     -587.00829      0             -549.65946     -6973.8975      1556.2947    
    281000   3581.244      -583.5014       0             -539.52475     -26544.406      1534.7737    
    282000   2973.7513     -583.88735      0             -547.37054     -340.85805      1532.7888    
    283000   3385.7529     -584.44846      0             -542.87238     -9299.6329      1525.8392    
    284000   3543.3119     -584.11857      0             -540.60772     -19985.581      1459.7741    
    285000   3173.2054     -589.0715       0             -550.10545     -1517.6222      1526.2226    
    286000   3651.0822     -585.11653      0             -540.28228     -9482.6953      1514.2642    
    287000   3385.3084     -590.76987      0             -549.19926      4003.9705      1531.0227    
    288000   3832.7186     -587.07997      0             -540.01528     -24763.208      1508.738     
    289000   3154.3726     -587.23631      0             -548.50152      4688.9021      1510.8457    
    290000   3678.1539     -588.13826      0             -542.97158      22543.992      1514.4308    
    291000   3861.1089     -586.72274      0             -539.30943     -6598.9047      1530.4042    
    292000   2995.01       -587.11753      0             -550.33966     -19916.289      1529.4734    
    293000   3036.0687     -582.50577      0             -545.22372      12607.914      1508.4496    
    294000   3363.048      -589.2383       0             -547.94104      48946.251      1445.1003    
    295000   3354.7253     -589.47856      0             -548.28349     -13600.136      1525.1743    
    296000   3485.2189     -580.5078       0             -537.71031      8215.0085      1474.6868    
    297000   3214.468      -583.92559      0             -544.45284     -21984.872      1468.3349    
    298000   3119.5261     -589.25         0             -550.94311     -28453.323      1471.7632    
    299000   3842.1279     -586.39135      0             -539.21112      35469.844      1442.2789    
    300000   2994.1637     -586.70315      0             -549.93568     -9231.3816      1488.7476    
    301000   3619.0966     -594.09193      0             -549.65046      25624.534      1568.0004    
    302000   3668.9731     -588.04157      0             -542.98763      23083.001      1518.1466    
    303000   3376.4726     -589.03797      0             -547.57585      4522.0314      1499.2131    
    304000   3169.5258     -590.59912      0             -551.67825      34751.714      1455.7833    
    305000   3189.6709     -587.01717      0             -547.84893      1645.2027      1475.0302    
    306000   2723.9076     -589.19465      0             -555.74584      13397.615      1455.3806    
    307000   3557.2043     -587.31066      0             -543.62921      35670.273      1436.9331    
    308000   3257.8951     -591.69382      0             -551.6878       27728.465      1459.5631    
    309000   3002.5452     -590.26507      0             -553.39467      54158.965      1506.8101    
    310000   3061.6803     -592.76788      0             -555.17132      12281.01       1500.6272    
    311000   3104.7415     -590.40195      0             -552.27661      1815.3288      1467.4339    
    312000   3714.9992     -597.9232       0             -552.30408      29899.31       1460.8051    
    313000   2624.0856     -593.10661      0             -560.88359     -17713.068      1505.5332    
    314000   2923.6201     -591.11005      0             -555.20884     -27469.386      1557.9718    
    315000   3425.8418     -588.32433      0             -546.25598     -44549.041      1543.365     
    316000   3047.0642     -592.20006      0             -554.78298     -15030.916      1524.3527    
    317000   2922.2011     -596.35841      0             -560.47462     -13827.535      1518.4704    
    318000   3072.341      -592.08883      0             -554.36136      449.52696      1517.0708    
    319000   3806.8848     -593.04086      0             -546.29341      12765.999      1489.4278    
    320000   3004.7823     -594.74718      0             -557.84931      12179.7        1555.1095    
Loop time of 6.38982 on 1 procs for 80000 steps with 96 atoms

Performance: 1081.721 ns/day, 0.022 hours/ns, 12519.916 timesteps/s, 1.202 Matom-step/s
99.1% CPU use with 1 MPI tasks x no OpenMP threads

MPI task timing breakdown:
Section |  min time  |  avg time  |  max time  |%varavg| %total
---------------------------------------------------------------
Pair    | 5.3238     | 5.3238     | 5.3238     |   0.0 | 83.32
Bond    | 0.0026911  | 0.0026911  | 0.0026911  |   0.0 |  0.04
Neigh   | 0.35341    | 0.35341    | 0.35341    |   0.0 |  5.53
Comm    | 0.20946    | 0.20946    | 0.20946    |   0.0 |  3.28
Output  | 0.012658   | 0.012658   | 0.012658   |   0.0 |  0.20
Modify  | 0.45249    | 0.45249    | 0.45249    |   0.0 |  7.08
Other   |            | 0.03535    |            |       |  0.55

Nlocal:             96 ave          96 max          96 min
Histogram: 1 0 0 0 0 0 0 0 0 0
Nghost:            525 ave         525 max         525 min
Histogram: 1 0 0 0 0 0 0 0 0 0
Neighs:              0 ave           0 max           0 min
Histogram: 1 0 0 0 0 0 0 0 0 0
FullNghs:         2694 ave        2694 max        2694 min
Histogram: 1 0 0 0 0 0 0 0 0 0

Total # of neighbors = 2694
Ave neighs/atom = 28.0625
Ave special neighs/atom = 0
Neighbor list builds = 2815
Dangerous builds = 0

fix npt1 all npt temp 3000 3000 0.1 iso 0 0 1
run 80000
Per MPI rank memory allocation (min/avg/max) = 8.549 | 8.549 | 8.549 Mbytes
   Step          Temp          E_pair         E_mol          TotEng         Press          Volume    
    320000   3004.7823     -594.74718      0             -557.84931      12179.7        1555.1095    
    321000   3019.4959     -592.65044      0             -555.5719      -22199.433      1502.1771    
    322000   3239.4349     -592.7998       0             -553.02047      61186.881      1457.5759    
    323000   2710.9675     -592.718        0             -559.42809      14443.736      1471.7624    
    324000   3071.4243     -596.93488      0             -559.21866     -18699.846      1508.2832    
    325000   3001.2435     -593.87228      0             -557.01787     -31575.785      1489.7965    
    326000   2961.2758     -596.76818      0             -560.40456      30607.868      1460.8678    
    327000   3260.9248     -596.35858      0             -556.31536      27827.91       1469.848     
    328000   2643.9792     -591.61957      0             -559.15226     -3206.4294      1564.6411    
    329000   2978.6742     -590.59859      0             -554.02133     -49269.69       1560.25      
    330000   3157.4904     -595.47106      0             -556.69798      26011.406      1546.6151    
    331000   2818.4768     -593.6637       0             -559.05361      8810.2006      1477.3668    
    332000   2841.4722     -589.12871      0             -554.23624     -13931.859      1483.7621    
    333000   2991.3922     -591.93756      0             -555.20412     -24880.812      1568.0832    
    334000   2844.6008     -595.96712      0             -561.03624     -22901.051      1583.2138    
    335000   3059.0892     -589.552        0             -551.98726     -11325.827      1543.7231    
    336000   2873.1589     -598.45259      0             -563.17102     -3658.4576      1503.7907    
    337000   2835.9491     -594.0644       0             -559.23975     -1781.2889      1501.846     
    338000   3365.3953     -590.04388      0             -548.71779     -23882.304      1525.5345    
    339000   2946.7042     -590.00246      0             -553.81777     -20085.186      1551.3037    
    340000   3107.2133     -594.97157      0             -556.81588      10535.524      1473.3641    
    341000   2796.6418     -591.33102      0             -556.98905     -6458.8235      1467.1383    
    342000   2623.0056     -590.46841      0             -558.25865      19856.147      1512.9579    
    343000   3644.8282     -587.83535      0             -543.0779      -51040.637      1586.9384    
    344000   3529.0875     -591.00053      0             -547.66435     -7609.881       1581.8564    
    345000   2714.9101     -594.0946       0             -560.75628     -45762.176      1519.2299    
    346000   2825.5189     -593.28776      0             -558.5912       31013.851      1475.4133    
    347000   3233.6521     -594.59104      0             -554.88271      4582.6244      1530.9687    
    348000   2697.7914     -589.86066      0             -556.73255      12639.8        1529.7753    
    349000   3699.2656     -593.86774      0             -548.44182     -21508.516      1535.4944    
    350000   3031.7401     -591.35057      0             -554.12167     -13029.71       1548.0839    
    351000   3174.8006     -589.13671      0             -550.15106      32653.28       1506.8778    
    352000   3037.0233     -596.03227      0             -558.73849      9299.3154      1472.7255    
    353000   2873.1071     -586.02257      0             -550.74164      4114.8092      1513.0972    
    354000   2946.3799     -599.42399      0             -563.24329      25403.641      1512.3822    
    355000   3016.2829     -595.36071      0             -558.32162     -25622.977      1465.1816    
    356000   3278.7026     -590.29454      0             -550.03301     -25406.036      1536.028     
    357000   2671.2979     -585.36766      0             -552.56489     -45107.079      1585.038     
    358000   3059.8243     -589.22765      0             -551.65389     -160.81071      1535.6483    
    359000   2754.4881     -596.30123      0             -562.47691      13443.067      1502.713     
    360000   3006.0907     -596.54507      0             -559.63114     -2476.7331      1491.7617    
    361000   3085.9994     -599.17047      0             -561.27528     -3067.9359      1512.5111    
    362000   3177.6777     -591.78902      0             -552.76804     -14328.381      1528.0787    
    363000   3027.0576     -595.09066      0             -557.91926      32428.277      1492.6865    
    364000   3025.5629     -594.73856      0             -557.58551     -2.7027451      1511.6081    
    365000   3355.6672     -595.22585      0             -554.01922      1726.2748      1524.6097    
    366000   2977.3358     -591.1649       0             -554.60407     -7757.286       1588.1009    
    367000   3383.4722     -591.73659      0             -550.18852      18845.852      1496.2783    
    368000   2664.0753     -592.56931      0             -559.85523      45656.319      1472.7781    
    369000   3280.2246     -592.19162      0             -551.9114       13197.51       1502.2673    
    370000   2918.0741     -593.06762      0             -557.23451     -13029.61       1544.1779    
    371000   2552.2162     -593.01447      0             -561.67399     -29135.294      1481.9696    
    372000   3134.3357     -593.51512      0             -555.02638      12349.062      1464.0604    
    373000   3000.566      -591.48422      0             -554.63813      12749.018      1505.3452    
    374000   2613.8013     -590.38237      0             -558.28564     -28344.895      1526.1066    
    375000   3157.455      -597.06273      0             -558.29009      19764.697      1518.1228    
    376000   2801.9794     -586.68776      0             -552.28026     -8422.446       1481.6272    
    377000   2715.2414     -597.93883      0             -564.59644     -41087.675      1493.2317    
    378000   2926.2083     -590.32493      0             -554.39193      13939.211      1516.3086    
    379000   3105.9384     -593.70116      0             -555.56113      13507.628      1473.7959    
    380000   2515.3717     -592.1819       0             -561.29385     -10688.725      1495.5595    
    381000   2729.0394     -590.97366      0             -557.46184     -47849.867      1516.2024    
    382000   2934.4442     -594.53046      0             -558.49633     -18958.972      1535.5741    
    383000   3107.0885     -587.14881      0             -548.99465      36297.505      1479.0631    
    384000   3101.7861     -596.37154      0             -558.2825       13174.171      1460.0138    
    385000   2961.9179     -589.0308       0             -552.65929      6118.1486      1473.6488    
    386000   2765.498      -595.62239      0             -561.66286     -12651.535      1479.8113    
    387000   2708.2523     -590.49945      0             -557.24288      32132.845      1408.317     
    388000   2862.1298     -595.66068      0             -560.51454      43074.783      1379.111     
    389000   2873.0783     -594.21308      0             -558.9325       36013.158      1430.7166    
    390000   2732.5093     -591.43849      0             -557.88406      13773.932      1453.2548    
    391000   2996.1884     -593.70022      0             -556.90789     -6354.566       1451.2754    
    392000   3277.2353     -587.7362       0             -547.49269     -19164.088      1465.9961    
    393000   3133.5886     -592.67835      0             -554.19878      46525.095      1446.5187    
    394000   3249.0888     -587.27785      0             -547.37997      4820.3717      1469.0226    
    395000   2583.2168     -589.21688      0             -557.49572     -15832.817      1478.8807    
    396000   2751.0204     -592.36399      0             -558.58225      35009.923      1505.5743    
    397000   2813.7325     -585.55173      0             -550.9999      -16904.6        1493.0717    
    398000   2693.7255     -593.2523       0             -560.17413      1966.0217      1501.6831    
    399000   2925.0523     -592.04473      0             -556.12593      25504.73       1445.5748    
    400000   2592.7366     -592.74277      0             -560.90471      12539.546      1465.6193    
Loop time of 6.21586 on 1 procs for 80000 steps with 96 atoms

Performance: 1111.994 ns/day, 0.022 hours/ns, 12870.304 timesteps/s, 1.236 Matom-step/s
99.0% CPU use with 1 MPI tasks x no OpenMP threads

MPI task timing breakdown:
Section |  min time  |  avg time  |  max time  |%varavg| %total
---------------------------------------------------------------
Pair    | 5.1899     | 5.1899     | 5.1899     |   0.0 | 83.49
Bond    | 0.0026394  | 0.0026394  | 0.0026394  |   0.0 |  0.04
Neigh   | 0.32124    | 0.32124    | 0.32124    |   0.0 |  5.17
Comm    | 0.20765    | 0.20765    | 0.20765    |   0.0 |  3.34
Output  | 0.014175   | 0.014175   | 0.014175   |   0.0 |  0.23
Modify  | 0.44543    | 0.44543    | 0.44543    |   0.0 |  7.17
Other   |            | 0.03482    |            |       |  0.56

Nlocal:             96 ave          96 max          96 min
Histogram: 1 0 0 0 0 0 0 0 0 0
Nghost:            551 ave         551 max         551 min
Histogram: 1 0 0 0 0 0 0 0 0 0
Neighs:              0 ave           0 max           0 min
Histogram: 1 0 0 0 0 0 0 0 0 0
FullNghs:         2820 ave        2820 max        2820 min
Histogram: 1 0 0 0 0 0 0 0 0 0

Total # of neighbors = 2820
Ave neighs/atom = 29.375
Ave special neighs/atom = 0
Neighbor list builds = 2564
Dangerous builds = 0

fix npt1 all npt temp 3000 2000 0.1 iso 0 0 1
run 80000
Per MPI rank memory allocation (min/avg/max) = 8.549 | 8.549 | 8.549 Mbytes
   Step          Temp          E_pair         E_mol          TotEng         Press          Volume    
    400000   2592.7366     -592.74277      0             -560.90471      12539.546      1465.6193    
    401000   3385.2298     -593.11754      0             -551.54789      25032.311      1454.2533    
    402000   2689.1423     -592.13701      0             -559.11511      12585.042      1461.5162    
    403000   2911.1513     -597.24108      0             -561.49297      20013.875      1484.4147    
    404000   2441.6523     -592.35406      0             -562.37127     -16568.785      1449.2459    
    405000   3303.5494     -592.20642      0             -551.63978     -9753.5147      1505.1248    
    406000   2797.2151     -591.54237      0             -557.19337     -11816.149      1538.1007    
    407000   2705.2068     -591.60416      0             -558.38499     -5217.6256      1543.6406    
    408000   2765.6474     -596.5143       0             -562.55295      21223.43       1470.95      
    409000   2890.8705     -588.79777      0             -553.29871     -822.21251      1487.3105    
    410000   2893.7853     -595.89285      0             -560.35799      35383.391      1535.5981    
    411000   2823.9565     -593.50653      0             -558.82915      9260.3293      1540.7819    
    412000   2973.1834     -596.40372      0             -559.89388     -15873.669      1558.4958    
    413000   2950.5756     -591.57998      0             -555.34775      10208.054      1548.8446    
    414000   2585.6624     -595.02587      0             -563.27468     -32401.937      1574.5862    
    415000   3327.3024     -594.42584      0             -553.56752     -30573.537      1574.2615    
    416000   2624.1782     -592.37094      0             -560.14679     -54230.514      1550.7008    
    417000   3221.8263     -594.19513      0             -554.63203     -3917.4822      1545.5268    
    418000   2562.9265     -595.41539      0             -563.94338      8811.9432      1468.2541    
    419000   2643.1091     -597.40398      0             -564.94736      8777.3278      1475.9116    
    420000   3035.9934     -597.09179      0             -559.81066      17812.316      1468.1479    
    421000   2623.6528     -591.44966      0             -559.23195     -18946.427      1518.9951    
    422000   2824.98       -593.68397      0             -558.99402     -9695.7206      1515.9787    
    423000   3238.4961     -600.85473      0             -561.08693      26602.008      1487.3287    
    424000   2597.0881     -600.0124       0             -568.1209      -27814.956      1442.6825    
    425000   2368.0092     -595.02759      0             -565.94911     -8869.9007      1489.3595    
    426000   2419.1909     -602.16201      0             -572.45503      13294.472      1513.3091    
    427000   2766.9396     -597.55388      0             -563.57666      41641.602      1485.9291    
    428000   2944.7824     -596.49742      0             -560.33634     -1130.4731      1524.7239    
    429000   2723.5693     -597.34582      0             -563.90117     -36941.456      1542.959     
    430000   2485.1334     -598.8716       0             -568.35487     -23752.933      1579.8806    
    431000   2467.3642     -597.8535       0             -567.55498      3147.3718      1524.9641    
    432000   2225.4778     -594.75386      0             -567.42563     -26597.302      1519.1686    
    433000   2558.7993     -597.28554      0             -565.86422      12255.574      1484.4125    
    434000   2766.4052     -598.63657      0             -564.66591      25197.684      1495.3268    
    435000   2127.3142     -596.88749      0             -570.76468     -7074.0675      1534.3172    
    436000   2732.743      -597.18697      0             -563.62967     -21512.392      1564.3172    
    437000   2782.9391     -598.4598       0             -564.2861       4404.9468      1549.0315    
    438000   2452.633      -601.92197      0             -571.80434     -4004.9524      1494.6941    
    439000   2331.0007     -601.13696      0             -572.51294      20200.342      1495.1361    
    440000   2316.878      -600.49711      0             -572.04651      29053.039      1434.1078    
    441000   2315.1083     -605.75539      0             -577.32652      43325.545      1410.2589    
    442000   2630.7494     -596.34794      0             -564.04309     -19317.108      1476.9274    
    443000   2441.9807     -601.1384       0             -571.15157     -3648.9212      1521.3723    
    444000   2585.9636     -591.63994      0             -559.88505      5078.8626      1493.1396    
    445000   2368.9262     -602.23088      0             -573.14114     -4328.7617      1505.1593    
    446000   2097.485      -594.8081       0             -569.05159     -13225.042      1483.6985    
    447000   2428.729      -598.93179      0             -569.10769     -5965.7554      1524.1336    
    448000   2588.6793     -598.83595      0             -567.04771     -26360.604      1572.4803    
    449000   2364.0591     -607.85881      0             -578.82884     -664.32047      1499.3292    
    450000   2403.1693     -597.11368      0             -567.60344     -6195.3094      1473.4334    
    451000   2556.3582     -605.63897      0             -574.24763      10021.668      1484.4842    
    452000   2637.5732     -598.51183      0             -566.12319      178.8732       1504.5597    
    453000   2388.1639     -601.42351      0             -572.09754      12395.403      1526.205     
    454000   2131.4044     -599.88806      0             -573.71503     -5808.8306      1482.8518    
    455000   2188.7507     -604.71752      0             -577.84028      6180.5204      1514.1104    
    456000   2330.8277     -601.26252      0             -572.64062      11406.528      1463.4629    
    457000   2112.4059     -603.29066      0             -577.35092      35410.412      1437.6804    
    458000   2568.918      -601.19066      0             -569.64509     -8768.2759      1467.1695    
    459000   2060.6622     -603.10008      0             -577.79573      8468.5585      1472.2195    
    460000   2810.0758     -601.49888      0             -566.99195      11825.355      1500.3545    
    461000   2281.6188     -602.01029      0             -573.99267      686.30584      1483.9217    
    462000   2156.0133     -604.98628      0             -578.51105     -18408.012      1482.8049    
    463000   2361.0627     -603.67503      0             -574.68186     -9164.0232      1502.6913    
    464000   2082.4583     -603.47687      0             -577.90488     -10685.401      1519.8324    
    465000   2367.0134     -601.35117      0             -572.28492      1570.2447      1519.3508    
    466000   2254.3889     -602.86414      0             -575.18089     -5324.6736      1500.7502    
    467000   2213.0865     -603.40939      0             -576.23332      16909.592      1499.4913    
    468000   1758.9642     -601.48183      0             -579.88226     -10573.493      1519.6933    
    469000   2357.7143     -601.61278      0             -572.66073      7459.1335      1467.2758    
    470000   2119.7892     -607.36787      0             -581.33746      40148.118      1443.9805    
    471000   1813.9154     -605.09739      0             -582.82303      9110.3136      1454.4945    
    472000   2124.5966     -607.4347       0             -581.34527     -2920.0607      1495.1067    
    473000   2568.0524     -607.37687      0             -575.84192      5703.5107      1502.1143    
    474000   1871.2317     -603.76129      0             -580.7831      -24701.319      1492.8977    
    475000   1784.3735     -606.9102       0             -584.99861     -17409.986      1454.4759    
    476000   1952.6623     -605.15938      0             -581.18124     -9763.4209      1482.806     
    477000   2219.1362     -605.64204      0             -578.39168     -10686.361      1477.2151    
    478000   2192.2545     -604.21381      0             -577.29355     -15967.285      1493.5379    
    479000   2151.312      -609.18349      0             -582.76599     -8280.8836      1476.8447    
    480000   1826.4229     -607.57467      0             -585.14672     -8004.3894      1482.1662    
Loop time of 6.11775 on 1 procs for 80000 steps with 96 atoms

Performance: 1129.826 ns/day, 0.021 hours/ns, 13076.694 timesteps/s, 1.255 Matom-step/s
98.8% CPU use with 1 MPI tasks x no OpenMP threads

MPI task timing breakdown:
Section |  min time  |  avg time  |  max time  |%varavg| %total
---------------------------------------------------------------
Pair    | 5.1033     | 5.1033     | 5.1033     |   0.0 | 83.42
Bond    | 0.0026819  | 0.0026819  | 0.0026819  |   0.0 |  0.04
Neigh   | 0.28266    | 0.28266    | 0.28266    |   0.0 |  4.62
Comm    | 0.2067     | 0.2067     | 0.2067     |   0.0 |  3.38
Output  | 0.01339    | 0.01339    | 0.01339    |   0.0 |  0.22
Modify  | 0.47437    | 0.47437    | 0.47437    |   0.0 |  7.75
Other   |            | 0.03466    |            |       |  0.57

Nlocal:             96 ave          96 max          96 min
Histogram: 1 0 0 0 0 0 0 0 0 0
Nghost:            553 ave         553 max         553 min
Histogram: 1 0 0 0 0 0 0 0 0 0
Neighs:              0 ave           0 max           0 min
Histogram: 1 0 0 0 0 0 0 0 0 0
FullNghs:         2814 ave        2814 max        2814 min
Histogram: 1 0 0 0 0 0 0 0 0 0

Total # of neighbors = 2814
Ave neighs/atom = 29.3125
Ave special neighs/atom = 0
Neighbor list builds = 2267
Dangerous builds = 0

fix npt1 all npt temp 2000 2000 0.1 iso 0 0 1
run 80000
Per MPI rank memory allocation (min/avg/max) = 8.549 | 8.549 | 8.549 Mbytes
   Step          Temp          E_pair         E_mol          TotEng         Press          Volume    
    480000   1826.4229     -607.57467      0             -585.14672     -8004.3894      1482.1662    
    481000   1927.6179     -608.8256       0             -585.15501     -18272.542      1465.001     
    482000   2011.3384     -607.71404      0             -583.01538      5489.815       1433.1865    
    483000   2174.8172     -605.80979      0             -579.10365     -25248.946      1554.9294    
    484000   1908.3174     -608.67128      0             -585.23769     -28722.817      1493.1435    
    485000   1845.5429     -604.44768      0             -581.78494     -18055.551      1483.3406    
    486000   1901.2486     -607.25091      0             -583.90412      30188.279      1460.5761    
    487000   2256.9307     -606.97087      0             -579.25641      27323.256      1446.2014    
    488000   1983.1887     -601.86207      0             -577.50908     -11385.935      1534.5247    
    489000   2063.4815     -603.24662      0             -577.90766      44315.682      1424.2489    
    490000   1841.4267     -605.37868      0             -582.76649      18987.019      1462.7605    
    491000   1935.5101     -606.31326      0             -582.54575      1285.2374      1492.6896    
    492000   1961.8702     -604.25892      0             -580.16771     -5276.9426      1470.6085    
    493000   1937.7057     -605.73812      0             -581.94365      8122.5019      1449.6539    
    494000   2017.3539     -603.12865      0             -578.35612     -3404.9063      1482.4562    
    495000   2156.1539     -608.92522      0             -582.44827      4942.2837      1466.3111    
    496000   1899.8285     -606.04778      0             -582.71843      4245.1632      1474.1795    
    497000   2183.7288     -606.33179      0             -579.51622      6412.3096      1526.0374    
    498000   2274.5958     -606.57942      0             -578.64803     -6644.7401      1508.3804    
    499000   2115.6972     -610.35302      0             -584.37286      4939.0384      1464.5193    
    500000   1965.7113     -603.45517      0             -579.3168      -19691.956      1497.108     
    501000   1542.373      -608.09185      0             -589.15195      1478.6509      1483.3363    
    502000   1857.3172     -604.54904      0             -581.74172      34467.683      1425.5099    
    503000   2245.9402     -605.55414      0             -577.97463     -14933.783      1508.1045    
    504000   2233.4518     -607.77998      0             -580.35383     -10200.516      1524.2731    
    505000   2047.7036     -609.59518      0             -584.44997     -22741.126      1487.7818    
    506000   2051.7006     -608.75662      0             -583.56232     -9763.5592      1497.0154    
    507000   2240.5996     -604.08057      0             -576.56665     -4709.4806      1495.1767    
    508000   1989.1572     -607.63263      0             -583.20635      29274.872      1488.977     
    509000   2073.8437     -605.21201      0             -579.7458       3004.6452      1496.0001    
    510000   2011.7739     -604.92387      0             -580.21986      10098.945      1499.3278    
    511000   2110.1899     -607.67601      0             -581.76348     -951.87075      1494.5447    
    512000   2088.5309     -604.95052      0             -579.30396      16460.72       1503.8974    
    513000   1936.9336     -609.67545      0             -585.89046     -10964.124      1457.0399    
    514000   1976.1065     -604.09904      0             -579.83302     -6377.0946      1505.497     
    515000   1971.2976     -602.09404      0             -577.88707     -23356.193      1501.7096    
    516000   2071.8596     -608.04121      0             -582.59936     -2508.8182      1493.0201    
    517000   2168.2109     -606.17518      0             -579.55018      12191.228      1486.2509    
    518000   1836.2078     -607.09565      0             -584.54755      17565.129      1493.8321    
    519000   2338.3927     -607.03236      0             -578.31757     -6513.4924      1496.671     
    520000   1692.6881     -605.71394      0             -584.92822      8220.6863      1451.9882    
    521000   2156.1285     -604.96059      0             -578.48395      11397.034      1459.7191    
    522000   1778.0519     -605.56692      0             -583.73295      13993.576      1520.5105    
    523000   2077.7482     -607.06018      0             -581.54603      483.6015       1500.0085    
    524000   2317.1438     -608.36167      0             -579.90781      14510.37       1456.9667    
    525000   1697.6607     -609.93013      0             -589.08334     -21054.513      1514.8514    
    526000   2068.6255     -604.40703      0             -579.0049       835.01537      1508.6949    
    527000   1969.5297     -608.24083      0             -584.05557      7731.856       1443.0666    
    528000   2168.2504     -607.40637      0             -580.78088     -4020.0825      1428.364     
    529000   1802.8739     -607.85592      0             -585.71715     -12299.756      1489.171     
    530000   1926.1927     -602.05323      0             -578.40014     -37845.456      1481.8976    
    531000   1889.8906     -603.73824      0             -580.53092      44251.4        1411.5973    
    532000   2203.4478     -604.89901      0             -577.84131      332.48988      1490.6438    
    533000   2085.8396     -608.66141      0             -583.0479      -19189.224      1526.9077    
    534000   2165.357      -604.21306      0             -577.62309      26963.525      1469.8692    
    535000   1907.6711     -605.05596      0             -581.6303       10924.901      1471.6272    
    536000   2061.9117     -608.4669       0             -583.14721     -21015.878      1533.4593    
    537000   2009.0041     -602.8688       0             -578.19881     -13806.673      1452.6789    
    538000   1932.3361     -606.86886      0             -583.14033     -795.32823      1472.3968    
    539000   1734.3873     -609.39931      0             -588.10153      882.20574      1483.5249    
    540000   1880.2659     -603.38803      0             -580.2989       24109.075      1431.5378    
    541000   1912.8472     -605.49492      0             -582.00571      6705.0528      1479.8854    
    542000   2067.7001     -609.97126      0             -584.58049     -11498.183      1504.6526    
    543000   2069.9501     -609.46541      0             -584.04702     -645.50652      1465.4462    
    544000   1815.3713     -607.62957      0             -585.33733      6977.1035      1488.5826    
    545000   1836.3239     -608.97335      0             -586.42381      4828.0532      1476.8916    
    546000   1917.594      -604.28502      0             -580.73752      31257.787      1478.2499    
    547000   1862.0532     -609.20813      0             -586.34265      4846.7609      1497.7136    
    548000   2156.446      -607.36641      0             -580.88587     -6408.8065      1482.6788    
    549000   2024.5928     -604.68219      0             -579.82077     -14048.128      1487.035     
    550000   2170.7959     -606.16803      0             -579.51128     -16528.096      1483.8978    
    551000   1948.3097     -606.37069      0             -582.44601     -13525.348      1502.8323    
    552000   2266.1698     -605.43523      0             -577.60732     -33221.583      1527.9588    
    553000   1840.2217     -606.14497      0             -583.54757      3180.9651      1454.3682    
    554000   2001.673      -603.04837      0             -578.4684       18886.416      1463.8492    
    555000   2020.2279     -609.01398      0             -584.20616     -19062.471      1505.3612    
    556000   1962.3038     -608.36495      0             -584.26842      13360.261      1453.7094    
    557000   1899.9617     -605.64489      0             -582.3139      -5590.719       1504.7175    
    558000   2027.403      -605.48379      0             -580.58787      2139.0465      1458.6059    
    559000   2090.2697     -610.15541      0             -584.48749     -17384.167      1495.1537    
    560000   1930.8161     -604.66745      0             -580.95758     -7888.5607      1483.7494    
Loop time of 6.76591 on 1 procs for 80000 steps with 96 atoms

Performance: 1021.592 ns/day, 0.023 hours/ns, 11823.981 timesteps/s, 1.135 Matom-step/s
98.6% CPU use with 1 MPI tasks x no OpenMP threads

MPI task timing breakdown:
Section |  min time  |  avg time  |  max time  |%varavg| %total
---------------------------------------------------------------
Pair    | 5.6901     | 5.6901     | 5.6901     |   0.0 | 84.10
Bond    | 0.0033156  | 0.0033156  | 0.0033156  |   0.0 |  0.05
Neigh   | 0.25056    | 0.25056    | 0.25056    |   0.0 |  3.70
Comm    | 0.22006    | 0.22006    | 0.22006    |   0.0 |  3.25
Output  | 0.021125   | 0.021125   | 0.021125   |   0.0 |  0.31
Modify  | 0.5394     | 0.5394     | 0.5394     |   0.0 |  7.97
Other   |            | 0.04134    |            |       |  0.61

Nlocal:             96 ave          96 max          96 min
Histogram: 1 0 0 0 0 0 0 0 0 0
Nghost:            541 ave         541 max         541 min
Histogram: 1 0 0 0 0 0 0 0 0 0
Neighs:              0 ave           0 max           0 min
Histogram: 1 0 0 0 0 0 0 0 0 0
FullNghs:         2806 ave        2806 max        2806 min
Histogram: 1 0 0 0 0 0 0 0 0 0

Total # of neighbors = 2806
Ave neighs/atom = 29.229167
Ave special neighs/atom = 0
Neighbor list builds = 1866
Dangerous builds = 0

fix npt1 all npt temp 2000 1000 0.1 iso 0 0 1
run 80000
Per MPI rank memory allocation (min/avg/max) = 8.549 | 8.549 | 8.549 Mbytes
   Step          Temp          E_pair         E_mol          TotEng         Press          Volume    
    560000   1930.8161     -604.66745      0             -580.95758     -7888.5607      1483.7494    
    561000   1980.2244     -611.12636      0             -586.80977      1685.6867      1491.8035    
    562000   1751.1781     -606.84961      0             -585.34565      3877.4785      1479.1203    
    563000   2044.8284     -607.88237      0             -582.77246      34927.516      1426.4964    
    564000   1746.3164     -608.69936      0             -587.25509     -3330.4495      1531.4783    
    565000   2312.0946     -606.67225      0             -578.28039      16023.562      1454.203     
    566000   1996.2752     -608.54521      0             -584.03152     -3810.0484      1481.0298    
    567000   1921.1101     -610.03728      0             -586.4466      -19822.99       1520.4974    
    568000   1710.2901     -608.80396      0             -587.80208      40282.916      1425.6239    
    569000   2127.929      -607.63241      0             -581.50205      11886.483      1476.7256    
    570000   1904.9163     -609.25245      0             -585.86062     -17710.111      1527.994     
    571000   1876.2616     -609.34719      0             -586.30724      18263.74       1476.6186    
    572000   2091.3843     -608.22047      0             -582.53887      34058.76       1449.3507    
    573000   1901.0917     -610.42811      0             -587.08325     -18506.805      1493.736     
    574000   1730.7464     -610.12962      0             -588.87655      29310.439      1462.35      
    575000   1697.1444     -608.81383      0             -587.97339      5120.0337      1480.0107    
    576000   1859.5559     -612.19159      0             -589.35678     -13232.884      1474.3119    
    577000   1909.3324     -607.92311      0             -584.47706      10676.41       1482.2214    
    578000   1812.6893     -611.35761      0             -589.09831     -21237.167      1477.5574    
    579000   1796.5428     -606.72737      0             -584.66634      10918.185      1482.9191    
    580000   1891.2321     -607.25866      0             -584.03487      10204.615      1468.8706    
    581000   1414.8088     -609.03993      0             -591.66649      36647.491      1460.496     
    582000   1643.0154     -609.21468      0             -589.03893     -38211.979      1504.1561    
    583000   1733.0417     -612.15534      0             -590.87409      11565.564      1471.3067    
    584000   1478.2338     -610.61302      0             -592.46073      711.29798      1500.4479    
    585000   1699.5613     -612.371        0             -591.50088     -20824.601      1510.2804    
    586000   1597.2664     -610.46683      0             -590.85286      12045.103      1458.2833    
    587000   1580.9674     -611.61102      0             -592.1972      -7224.1895      1463.5136    
    588000   1681.9561     -610.03011      0             -589.37617     -20196.342      1540.9796    
    589000   1609.5256     -613.27578      0             -593.51127     -14533.936      1475.8386    
    590000   1644.7944     -608.13619      0             -587.93858     -2523.7938      1476.6503    
    591000   1401.9551     -610.69341      0             -593.4778      -32559.734      1486.2778    
    592000   1506.0127     -614.30788      0             -595.81447     -5111.6539      1492.9448    
    593000   1378.5499     -612.82929      0             -595.90109      7129.5248      1500.4853    
    594000   1718.0783     -613.72171      0             -592.6242       21281.788      1439.4599    
    595000   1520.855      -615.27113      0             -596.59546     -13596.75       1501.4595    
    596000   1642.039      -612.92412      0             -592.76035      11112.536      1477.1924    
    597000   1577.1162     -616.10029      0             -596.73375     -5901.5798      1510.3585    
    598000   1636.9513     -613.16857      0             -593.06728      22680.746      1435.9967    
    599000   1368.9057     -614.01756      0             -597.20779      4135.6644      1479.8444    
    600000   1475.9748     -613.42091      0             -595.29636      0.85379629     1479.0744    
    601000   1464.4191     -614.69542      0             -596.71277     -5657.7985      1483.7791    
    602000   1401.7661     -611.19073      0             -593.97745     -5568.3578      1495.7229    
    603000   1715.7002     -613.53339      0             -592.46508      41800.544      1461.9135    
    604000   1391.6394     -615.14226      0             -598.05332     -11010.768      1518.0612    
    605000   1260.9042     -614.77982      0             -599.29627     -3832.1414      1453.0724    
    606000   1357.5411     -612.60547      0             -595.93525     -14191.876      1488.244     
    607000   1353.5706     -616.64137      0             -600.01992      1543.0842      1471.4121    
    608000   1338.852      -616.54696      0             -600.10624      2543.2993      1471.0364    
    609000   1386.1579     -614.62373      0             -597.60211     -12100.987      1498.9447    
    610000   1489.0376     -613.22512      0             -594.94017     -2260.3748      1487.2996    
    611000   1237.3897     -616.03773      0             -600.84294     -24756.255      1478.6511    
    612000   1650.6873     -614.21731      0             -593.94734     -2492.2279      1522.8796    
    613000   1205.4756     -616.28635      0             -601.48346      9787.393       1457.2436    
    614000   1397.6892     -615.06804      0             -597.90482      10529.547      1442.0656    
    615000   1367.7375     -618.21112      0             -601.41569     -14133.623      1499.1823    
    616000   1621.6018     -617.29662      0             -597.38381      7130.5824      1479.3421    
    617000   1180.3468     -616.62751      0             -602.13319      21372.428      1464.3776    
    618000   1481.4311     -618.53296      0             -600.34141     -26711.701      1509.0811    
    619000   1157.5697     -617.97294      0             -603.75832      20813.759      1437.8098    
    620000   1237.2231     -615.74424      0             -600.55149      10128.162      1477.9698    
    621000   1176.1743     -617.50607      0             -603.06298      16847.466      1469.2173    
    622000   1169.6615     -618.10103      0             -603.73792     -6306.8067      1442.9455    
    623000   1506.1624     -619.19819      0             -600.70295     -4023.8625      1516.4157    
    624000   1148.2116     -616.49733      0             -602.39762      7179.2584      1450.2848    
    625000   1257.5385     -619.74784      0             -604.30562     -17667.266      1494.5886    
    626000   1293.4476     -618.53316      0             -602.64999     -5239.6842      1473.1623    
    627000   988.07957     -619.75246      0             -607.61912     -4997.5544      1477.0385    
    628000   1086.9771     -619.16375      0             -605.81598      4673.7524      1476.3957    
    629000   1168.3951     -617.79807      0             -603.45051     -944.97672      1466.8446    
    630000   1187.7756     -621.26938      0             -606.68384      1534.8444      1473.1971    
[...]
Neighs:              0 ave           0 max           0 min
Histogram: 1 0 0 0 0 0 0 0 0 0
FullNghs:         2768 ave        2768 max        2768 min
Histogram: 1 0 0 0 0 0 0 0 0 0

Total # of neighbors = 2768
Ave neighs/atom = 28.833333
Ave special neighs/atom = 0
Neighbor list builds = 202
Dangerous builds = 0


fix npt1 all npt temp 500 10 0.1 iso 0 0 1
run 80000
Per MPI rank memory allocation (min/avg/max) = 8.549 | 8.549 | 8.549 Mbytes
   Step          Temp          E_pair         E_mol          TotEng         Press          Volume    
    880000   495.07339     -627.55928      0             -621.47992     -8717.8794      1466.4821    
    881000   550.40918     -626.56619      0             -619.80733      13227.074      1467.5483    
    882000   503.72136     -627.67396      0             -621.4884       12927.01       1455.4145    
    883000   410.49164     -627.35339      0             -622.31267     -10566.907      1459.6311    
    884000   541.68435     -628.04226      0             -621.39053      12442.655      1441.0412    
    885000   566.44767     -627.61388      0             -620.65806     -1443.8203      1418.9679    
    886000   501.23846     -627.8975       0             -621.74244      6009.5951      1447.9581    
    887000   520.63881     -628.50839      0             -622.1151       7666.8445      1429.3167    
    888000   411.75619     -627.27289      0             -622.21664     -632.11587      1459.2145    
    889000   451.52677     -628.20998      0             -622.66536     -1758.1078      1459.1688    
    890000   459.57653     -628.0402       0             -622.39673     -1487.7256      1449.6182    
    891000   398.4991      -627.98905      0             -623.0956       6221.4094      1426.7837    
    892000   360.1824      -627.65472      0             -623.23179      1549.2998      1442.4014    
    893000   460.90372     -627.89603      0             -622.23627      3536.0752      1440.1426    
    894000   364.62344     -627.54454      0             -623.06707      9153.4732      1441.5279    
    895000   402.33666     -628.4767       0             -623.53612      16305.215      1428.1748    
    896000   406.7173      -628.17535      0             -623.18098     -1673.6032      1455.5556    
    897000   396.90248     -629.25666      0             -624.38281      3087.5409      1460.3692    
    898000   375.42777     -628.26073      0             -623.65058      332.01627      1443.7633    
    899000   344.8429      -628.68125      0             -624.44668     -1901.5967      1452.8117    
    900000   368.28912     -628.98691      0             -624.46443     -1423.6716      1434.9991    
    901000   415.4851      -629.09642      0             -623.99438     -1201.6335      1443.4045    
    902000   330.92052     -629.21181      0             -625.1482      -2965.4707      1426.3222    
    903000   391.0974      -629.06497      0             -624.2624      -16625.866      1462.6569    
    904000   303.31861     -628.74139      0             -625.01673     -15007.69       1442.1035    
    905000   327.76064     -628.45953      0             -624.43472     -10531.956      1456.0887    
    906000   326.68865     -629.01328      0             -625.00164     -8262.9334      1456.934     
    907000   342.28564     -629.04179      0             -624.83862     -4809.7571      1460.7819    
    908000   317.82859     -629.23372      0             -625.33088     -4807.364       1439.5271    
    909000   310.81015     -629.82281      0             -626.00615     -13474.684      1467.3461    
    910000   388.23074     -629.31233      0             -624.54496     -4337.5149      1446.2145    
    911000   298.27422     -629.71817      0             -626.05545      6692.0156      1433.8473    
    912000   318.26838     -629.49543      0             -625.58719     -2615.3996      1450.0864    
    913000   277.7916      -629.97042      0             -626.55922     -2446.5499      1434.543     
    914000   267.27501     -629.19217      0             -625.91011     -5357.5204      1454.3882    
    915000   295.46492     -629.93757      0             -626.30935      6977.9312      1455.9468    
    916000   278.14369     -630.33498      0             -626.91945     -1847.4136      1439.3083    
    917000   278.22747     -629.87356      0             -626.45701     -4404.9812      1451.3108    
    918000   275.83441     -630.51737      0             -627.1302      -2814.455       1453.6306    
    919000   299.25489     -630.24675      0             -626.57198     -730.50825      1437.6401    
    920000   273.28129     -630.74073      0             -627.38491      8196.7645      1433.3008    
    921000   293.56565     -630.71654      0             -627.11164      3981.9279      1444.1695    
    922000   224.77563     -630.53984      0             -627.77966      6256.9181      1421.5615    
    923000   266.06        -630.75878      0             -627.49164     -4553.1862      1436.7267    
    924000   222.2778      -630.3592       0             -627.62969      455.40911      1444.6221    
    925000   209.19616     -630.37933      0             -627.81046      2425.201       1433.5888    
    926000   233.99145     -630.6118       0             -627.73845     -218.93496      1441.8114    
    927000   220.95306     -631.07712      0             -628.36388      8972.8297      1442.5975    
    928000   198.18344     -630.79784      0             -628.3642      -9223.655       1436.8499    
    929000   228.39817     -630.89136      0             -628.0867      -3363.0029      1437.8368    
    930000   187.76286     -631.29709      0             -628.99141      1411.815       1443.1008    
    931000   192.95087     -631.11226      0             -628.74288     -11265.215      1443.6739    
    932000   186.00789     -631.19328      0             -628.90915      2082.5364      1439.6276    
    933000   168.25545     -631.26254      0             -629.19641     -2784.9777      1450.5086    
    934000   159.37848     -631.60157      0             -629.64444      677.0182       1429.4227    
    935000   166.11978     -631.47544      0             -629.43554     -155.94083      1442.2608    
    936000   142.44715     -631.73282      0             -629.98361     -192.50815      1442.7557    
    937000   184.22397     -631.50339      0             -629.24118      4542.9409      1430.9512    
    938000   151.29197     -631.92637      0             -630.06855      6356.8635      1445.044     
    939000   137.98709     -631.82411      0             -630.12967     -1543.5693      1438.4634    
    940000   132.72063     -631.92517      0             -630.2954      -3294.5119      1432.1331    
    941000   118.57278     -631.88779      0             -630.43176     -2643.8532      1443.553     
    942000   111.64985     -631.96777      0             -630.59674     -6800.8848      1441.3932    
    943000   111.09848     -632.09684      0             -630.73259     -2414.4848      1433.9341    
    944000   111.02361     -631.99861      0             -630.63527      970.22319      1439.4653    
    945000   100.02507     -632.33214      0             -631.10386     -3922.5792      1434.7732    
    946000   102.82134     -632.37519      0             -631.11258      607.61019      1428.6868    
    947000   100.87874     -632.35678      0             -631.11802     -5239.1371      1445.2959    
    948000   76.423406     -632.50839      0             -631.56993      1624.0036      1441.4051    
    949000   80.512328     -632.61057      0             -631.6219      -6846.6613      1435.9702    
    950000   64.009349     -632.62698      0             -631.84096     -1290.1975      1437.5529    
    951000   72.36968      -632.75107      0             -631.86239      778.51144      1434.6022    
    952000   60.616618     -632.87791      0             -632.13355      3037.172       1428.5599    
    953000   59.605351     -632.88647      0             -632.15453      2161.3087      1434.0175    
    954000   48.162857     -633.0206       0             -632.42918      1205.3604      1435.8363    
    955000   45.213064     -633.07413      0             -632.51893      1465.4106      1428.7472    
    956000   41.68173      -633.17289      0             -632.66105     -705.57792      1433.9523    
    957000   26.21698      -633.18314      0             -632.86121     -1517.6725      1436.5161    
    958000   22.183316     -633.28132      0             -633.00891     -1616.498       1431.7756    
    959000   18.992503     -633.37037      0             -633.13715     -1527.4169      1438.7759    
    960000   10.669258     -633.43182      0             -633.30081      168.34259      1428.7674    
Loop time of 5.57775 on 1 procs for 80000 steps with 96 atoms

Performance: 1239.209 ns/day, 0.019 hours/ns, 14342.697 timesteps/s, 1.377 Matom-step/s
98.4% CPU use with 1 MPI tasks x no OpenMP threads

MPI task timing breakdown:
Section |  min time  |  avg time  |  max time  |%varavg| %total
---------------------------------------------------------------
Pair    | 4.843      | 4.843      | 4.843      |   0.0 | 86.83
Bond    | 0.0028103  | 0.0028103  | 0.0028103  |   0.0 |  0.05
Neigh   | 0.0069866  | 0.0069866  | 0.0069866  |   0.0 |  0.13
Comm    | 0.18752    | 0.18752    | 0.18752    |   0.0 |  3.36
Output  | 0.01129    | 0.01129    | 0.01129    |   0.0 |  0.20
Modify  | 0.49673    | 0.49673    | 0.49673    |   0.0 |  8.91
Other   |            | 0.02939    |            |       |  0.53

Nlocal:             96 ave          96 max          96 min
Histogram: 1 0 0 0 0 0 0 0 0 0
Nghost:            539 ave         539 max         539 min
Histogram: 1 0 0 0 0 0 0 0 0 0
Neighs:              0 ave           0 max           0 min
Histogram: 1 0 0 0 0 0 0 0 0 0
FullNghs:         2862 ave        2862 max        2862 min
Histogram: 1 0 0 0 0 0 0 0 0 0

Total # of neighbors = 2862
Ave neighs/atom = 29.8125
Ave special neighs/atom = 0
Neighbor list builds = 56
Dangerous builds = 0

fix npt1 all npt temp 10 10 0.1 iso 0 0 1
run 80000
Per MPI rank memory allocation (min/avg/max) = 8.549 | 8.549 | 8.549 Mbytes
   Step          Temp          E_pair         E_mol          TotEng         Press          Volume    
    960000   10.669258     -633.43182      0             -633.30081      168.34259      1428.7674    
    961000   8.129032      -633.43289      0             -633.33307     -581.60347      1430.4948    
    962000   10.32745      -633.4388       0             -633.31198     -475.65817      1430.7633    
    963000   10.018573     -633.4514       0             -633.32837      205.12888      1434.4948    
    964000   9.9888078     -633.43768      0             -633.31502      3349.5323      1430.7481    
    965000   9.8146124     -633.4177       0             -633.29718     -516.37669      1431.7807    
    966000   10.664576     -633.42742      0             -633.29646     -2178.3933      1435.3997    
    967000   9.2123044     -633.43119      0             -633.31806     -355.12412      1434.0449    
    968000   10.473976     -633.41347      0             -633.28485     -553.91536      1434.3516    
    969000   9.2822015     -633.42158      0             -633.30759     -814.2092       1431.217     
    970000   10.308989     -633.44198      0             -633.31539     -2288.3693      1436.5094    
    971000   10.416238     -633.43058      0             -633.30268      1279.5886      1430.3873    
    972000   10.349157     -633.44816      0             -633.32108     -703.21101      1433.0232    
    973000   9.1701041     -633.43984      0             -633.32723     -796.82193      1432.3565    
    974000   9.5803703     -633.42303      0             -633.30539     -1434.3124      1435.2229    
    975000   11.03558      -633.42291      0             -633.2874      -863.26516      1434.5401    
    976000   8.8004817     -633.43856      0             -633.33049      570.37907      1430.0258    
    977000   10.200168     -633.42032      0             -633.29507      852.82993      1435.0126    
    978000   9.3812499     -633.44291      0             -633.32771     -3067.6872      1435.649     
    979000   9.2600037     -633.43466      0             -633.32095     -2157.7252      1433.1353    
    980000   9.1400846     -633.43918      0             -633.32694     -1459.634       1435.0472    
    981000   9.6558043     -633.43156      0             -633.31298     -1566.0574      1433.6532    
    982000   8.5664397     -633.42874      0             -633.32354     -1563.8661      1432.7652    
    983000   10.399738     -633.43755      0             -633.30985      866.32085      1433.104     
    984000   8.0529959     -633.43072      0             -633.33183      741.19974      1431.732     
    985000   10.348714     -633.42981      0             -633.30273      2247.1349      1432.1856    
    986000   9.6529056     -633.44747      0             -633.32893      196.47769      1432.1671    
    987000   10.342651     -633.44766      0             -633.32065      1385.3027      1431.9354    
    988000   10.761233     -633.42462      0             -633.29248      1207.7638      1435.1333    
    989000   10.001658     -633.43308      0             -633.31026     -433.85758      1432.7965    
    990000   9.0239026     -633.43478      0             -633.32397     -1915.8764      1435.1161    
    991000   10.016664     -633.43147      0             -633.30847     -1703.8117      1434.2032    
    992000   10.161905     -633.44256      0             -633.31777      363.69032      1431.6803    
    993000   10.51763      -633.4219       0             -633.29275      1615.7866      1430.8827    
    994000   9.6654957     -633.44175      0             -633.32307      2423.0139      1432.6239    
    995000   10.343577     -633.43246      0             -633.30545      231.30017      1433.6473    
    996000   11.19712      -633.44228      0             -633.30478     -649.90573      1431.7115    
    997000   9.3999935     -633.43836      0             -633.32293     -1800.0944      1432.0035    
    998000   10.508359     -633.41372      0             -633.28468     -592.27856      1433.8048    
    999000   8.6733957     -633.43043      0             -633.32392     -1198.9611      1434.4818    
   1000000   9.265025      -633.42252      0             -633.30875     -915.38192      1433.9202    
   1001000   9.7910875     -633.39855      0             -633.27831     -1592.2484      1433.6344    
   1002000   8.7737619     -633.43496      0             -633.32722     -482.9069       1432.3813    
   1003000   10.902352     -633.41997      0             -633.28609      1252.2942      1430.7614    
   1004000   10.697177     -633.44352      0             -633.31216      1283.018       1429.0025    
   1005000   8.6596314     -633.43021      0             -633.32387      741.54838      1432.8437    
   1006000   9.9370931     -633.43167      0             -633.30965      718.00582      1432.3737    
   1007000   10.604362     -633.44326      0             -633.31305     -1165.6303      1433.3574    
   1008000   9.6765841     -633.42239      0             -633.30356     -533.84978      1433.7418    
   1009000   10.589925     -633.42853      0             -633.29849      365.43397      1434.5761    
   1010000   8.6990784     -633.43271      0             -633.32589      1064.007       1432.0549    
   1011000   9.5427192     -633.42567      0             -633.30849      1485.0787      1431.0129    
   1012000   10.400135     -633.4242       0             -633.29649      721.24718      1433.5441    
   1013000   9.7108642     -633.45566      0             -633.33642      125.54779      1431.913     
   1014000   9.2914891     -633.42103      0             -633.30693      607.28162      1432.6458    
   1015000   9.6498779     -633.43928      0             -633.32078      446.41156      1431.0464    
   1016000   9.4138194     -633.43402      0             -633.31842      907.14627      1432.8697    
   1017000   8.7063454     -633.4197       0             -633.31278     -958.8351       1432.1829    
   1018000   9.4690813     -633.44359      0             -633.32731     -2248.8573      1435.0846    
   1019000   10.557177     -633.42165      0             -633.29201      1399.0229      1433.4833    
   1020000   9.0282777     -633.43427      0             -633.3234       3763.7393      1430.9005    
   1021000   9.9345844     -633.42008      0             -633.29809      1357.8831      1431.1619    
   1022000   10.760598     -633.45647      0             -633.32433      813.33803      1434.1217    
   1023000   12.0712       -633.43372      0             -633.28549     -3007.8789      1439.2835    
   1024000   10.806103     -633.4361       0             -633.30341     -1803.9288      1432.6869    
   1025000   11.153018     -633.44847      0             -633.31151      1050.1996      1431.1877    
   1026000   11.117008     -633.41784      0             -633.28133     -608.89577      1431.6572    
   1027000   8.8133152     -633.43447      0             -633.32625      1665.2981      1433.578     
   1028000   10.335568     -633.41975      0             -633.29283     -864.49223      1432.7629    
   1029000   9.48453       -633.42863      0             -633.31216     -1065.8078      1433.0316    
   1030000   10.009811     -633.44349      0             -633.32057     -570.04987      1432.8215    
   1031000   10.124722     -633.44192      0             -633.31759      525.91439      1433.5276    
   1032000   9.1205815     -633.43687      0             -633.32487     -421.66293      1431.7534    
   1033000   9.5878982     -633.43928      0             -633.32155      695.37969      1428.2074    
   1034000   10.807531     -633.4309       0             -633.29818     -987.68483      1435.9495    
   1035000   10.285459     -633.44072      0             -633.31442     -27.570324      1431.4232    
   1036000   9.8296075     -633.44955      0             -633.32885     -920.36022      1434.3478    
   1037000   9.4018822     -633.42831      0             -633.31286     -2276.8277      1432.9937    
   1038000   10.026821     -633.44772      0             -633.3246      -1197.0829      1435.6542    
   1039000   11.240175     -633.43205      0             -633.29403     -1091.1746      1430.7062    
   1040000   9.8107707     -633.43742      0             -633.31695     -51.479952      1432.9168    
Loop time of 5.60359 on 1 procs for 80000 steps with 96 atoms

Performance: 1233.495 ns/day, 0.019 hours/ns, 14276.561 timesteps/s, 1.371 Matom-step/s
96.4% CPU use with 1 MPI tasks x no OpenMP threads

MPI task timing breakdown:
Section |  min time  |  avg time  |  max time  |%varavg| %total
---------------------------------------------------------------
Pair    | 4.779      | 4.779      | 4.779      |   0.0 | 85.28
Bond    | 0.0028554  | 0.0028554  | 0.0028554  |   0.0 |  0.05
Neigh   | 0          | 0          | 0          |   0.0 |  0.00
Comm    | 0.18812    | 0.18812    | 0.18812    |   0.0 |  3.36
Output  | 0.022887   | 0.022887   | 0.022887   |   0.0 |  0.41
Modify  | 0.58119    | 0.58119    | 0.58119    |   0.0 | 10.37
Other   |            | 0.02953    |            |       |  0.53

Nlocal:             96 ave          96 max          96 min
Histogram: 1 0 0 0 0 0 0 0 0 0
Nghost:            547 ave         547 max         547 min
Histogram: 1 0 0 0 0 0 0 0 0 0
Neighs:              0 ave           0 max           0 min
Histogram: 1 0 0 0 0 0 0 0 0 0
FullNghs:         2850 ave        2850 max        2850 min
Histogram: 1 0 0 0 0 0 0 0 0 0

Total # of neighbors = 2850
Ave neighs/atom = 29.6875
Ave special neighs/atom = 0
Neighbor list builds = 0
Dangerous builds = 0


write_data amorphousSiO.data
System init for write_data ...


Total wall time: 0:01:20
