96
 Atoms. Timestep: 0
2 0 7.95642 4.74695
2 4.63304 0 11.358
2 0 4.63304 4.74695
2 7.95642 0 11.358
2 0 4.63304 8.47514
2 7.95642 0 1.8641
2 0 7.95642 8.47514
2 4.63304 0 1.8641
2 10.7421 8.43088 6.61105
2 4.15858 10.7421 0
2 1.84736 4.15858 6.61105
2 8.43088 1.84736 0
2 1.84736 8.43088 6.61105
2 8.43088 10.7421 0
2 10.7421 4.15858 6.61105
2 4.15858 1.84736 0
2 10.5201 6.29473 5.04003
2 6.29473 10.5201 11.6511
2 2.06934 6.29473 5.04003
2 6.29473 2.06934 11.6511
2 2.06934 6.29473 8.18207
2 6.29473 2.06934 1.57102
2 10.5201 6.29473 8.18207
2 6.29473 10.5201 1.57102
2 10.1594 8.65935 9.20274
2 3.93011 10.1594 2.59169
2 2.43004 3.93011 9.20274
2 8.65935 2.43004 2.59169
2 2.43004 8.65935 9.20274
2 8.65935 10.1594 2.59169
2 10.1594 3.93011 9.20274
2 3.93011 2.43004 2.59169
2 2.43004 3.93011 4.01936
2 8.65935 2.43004 10.6304
2 10.1594 8.65935 4.01936
2 3.93011 10.1594 10.6304
2 10.1594 3.93011 4.01936
2 3.93011 2.43004 10.6304
2 2.43004 8.65935 4.01936
2 8.65935 10.1594 10.6304
2 0 10.703 0
2 1.88643 0 6.61105
2 0 1.88643 0
2 10.703 0 6.61105
2 0 0 1.872
2 0 0 8.48305
2 0 0 11.3501
2 0 0 4.73905
2 11.2706 2.31295 2.18973
2 10.2765 11.2706 8.80078
2 1.31887 10.2765 2.18973
2 2.31295 1.31887 8.80078
2 1.31887 2.31295 2.18973
2 2.31295 11.2706 8.80078
2 11.2706 10.2765 2.18973
2 10.2765 1.31887 8.80078
2 1.31887 10.2765 11.0324
2 2.31295 1.31887 4.42131
2 11.2706 2.31295 11.0324
2 10.2765 11.2706 4.42131
2 11.2706 10.2765 11.0324
2 10.2765 1.31887 4.42131
2 1.31887 2.31295 11.0324
2 2.31295 11.2706 4.42131
1 11.0086 7.83654 8.10972
1 4.75292 11.0086 1.49867
1 1.5809 4.75292 8.10972
1 7.83654 1.5809 1.49867
1 1.5809 7.83654 8.10972
1 7.83654 11.0086 1.49867
1 11.0086 4.75292 8.10972
1 4.75292 1.5809 1.49867
1 1.5809 4.75292 5.11238
1 7.83654 1.5809 11.7234
1 11.0086 7.83654 5.11238
1 4.75292 11.0086 11.7234
1 11.0086 4.75292 5.11238
1 4.75292 1.5809 11.7234
1 1.5809 7.83654 5.11238
1 7.83654 11.0086 11.7234
1 10.1088 10.1088 3.30552
1 2.48067 10.1088 9.91657
1 2.48067 2.48067 3.30552
1 10.1088 2.48067 9.91657
1 2.48067 10.1088 3.30552
1 10.1088 10.1088 9.91657
1 10.1088 2.48067 3.30552
1 2.48067 2.48067 9.91657
1 0 1.60471 1.57853
1 10.9848 0 8.18958
1 0 10.9848 1.57853
1 1.60471 0 8.18958
1 0 10.9848 11.6436
1 1.60471 0 5.03252
1 0 1.60471 11.6436
1 10.9848 0 5.03252
96
 Atoms. Timestep: 2000
2 12.6865 9.07313 5.8348
2 4.58783 12.5317 12.1525
2 12.5885 5.28173 3.61722
2 7.62254 11.6941 11.2549
2 11.8823 3.74399 7.01004
2 7.66915 -0.0636031 1.1984
2 12.5415 6.74259 8.80854
2 5.32236 0.0543085 2.16935
2 10.9355 7.81767 6.8665
2 4.03735 10.6302 -0.0578895
2 1.88281 3.97423 6.85909
2 8.33671 1.09157 12.7369
2 2.10448 8.28801 7.13639
2 8.1962 10.3208 13.1871
2 10.4653 5.15019 5.77788
2 4.41561 2.24341 -0.0530813
2 11.1262 6.93728 4.70024
2 5.70917 10.2624 12.3892
2 1.28604 6.75171 4.8337
2 6.14499 1.35454 11.0771
2 1.92541 6.18074 9.14854
2 7.18096 2.0568 2.05926
2 10.4341 5.65986 7.9516
2 6.42578 11.148 1.54036
2 10.7669 7.99365 9.6703
2 4.02007 11.3194 3.18392
2 2.13572 4.03522 9.31182
2 9.91595 1.57553 1.6695
2 0.997768 9.27311 9.06136
2 9.48792 10.6211 1.56956
2 10.3842 3.30187 8.85668
2 4.46104 2.63965 3.1028
2 1.83878 3.52789 4.34002
2 8.48055 1.06138 9.9252
2 10.8246 9.03533 3.76892
2 3.10945 10.3082 10.8838
2 11.7221 3.49324 3.8154
2 3.15712 2.21062 11.4316
2 2.37828 9.4692 4.92581
2 8.47685 9.84896 10.4971
2 0.293256 11.3291 -0.0996261
2 1.33243 0.571644 6.95971
2 12.5026 2.01459 13.2654
2 10.5495 -0.226793 6.24792
2 0.35864 0.218972 1.46477
2 12.3906 12.402 8.40543
2 11.8873 0.0639831 11.7361
2 12.5784 0.787636 4.91349
2 12.3059 1.85604 2.35944
2 10.3704 10.5662 8.6091
2 2.19017 11.0245 2.21348
2 2.08625 1.43155 8.84719
2 2.07812 2.37647 1.98027
2 1.94359 11.8736 9.71672
2 12.5627 10.2378 2.1986
2 10.491 0.321528 9.20162
2 0.919106 10.1044 11.566
2 2.28463 1.19726 3.97554
2 10.8958 1.91248 10.6928
2 10.704 11.3578 4.0953
2 11.4872 10.4983 10.9519
2 10.39 1.1557 4.06674
2 0.633928 2.53184 10.7507
2 2.15425 12.3471 5.11823
1 11.0381 7.00045 8.34463
1 4.74021 11.082 1.7015
1 1.33841 4.71164 8.20894
1 8.17425 1.4676 0.727873
1 1.02111 7.85416 8.61047
1 7.89938 11.2142 1.08566
1 10.378 4.2582 7.18775
1 5.76328 1.7591 2.68161
1 1.06899 5.14155 4.42429
1 7.6496 0.364282 11.365
1 11.1309 8.6007 5.3407
1 4.15529 10.84 11.8107
1 10.9794 5.22271 4.21469
1 4.71627 1.44782 11.9986
1 1.27468 8.43294 5.37552
1 7.27571 10.0019 11.845
1 10.6856 10.2903 2.75833
1 1.74486 10.139 10.246
1 3.01064 2.55557 3.51074
1 9.9355 1.71011 9.51313
1 2.53702 11.0426 4.30875
1 10.3107 9.73562 10.0506
1 10.8114 2.16135 2.96518
1 2.19852 2.54181 10.1563
1 0.520488 1.99893 1.25321
1 10.8755 12.0696 7.81263
1 0.631552 11.4287 1.4794
1 1.28044 12.8163 8.60278
1 -0.294408 11.5277 11.9078
1 1.28658 0.845204 5.46743
1 12.3133 1.53045 11.537
1 11.2028 12.8116 4.8662
96
 Atoms. Timestep: 4000
2 12.8286 8.37206 5.48213
2 4.96275 12.1606 10.7988
2 0.411013 4.3596 4.60534
2 8.65878 1.44909 0.571476
2 1.72054 4.15335 8.5831
2 8.2613 6.69361 1.50135
2 0.265467 8.10732 8.79489
2 3.81976 0.511868 1.05862
2 11.2234 6.64988 7.15921
2 4.00013 10.7846 -0.0299005
2 2.24056 5.08796 11.4069
2 8.81336 3.82961 12.3679
2 1.99909 8.62773 6.89193
2 7.06293 8.97697 0.281226
2 11.9972 4.33347 6.91656
2 4.28799 1.61419 11.9804
2 11.2977 5.88273 5.03803
2 4.9932 9.46615 11.0058
2 2.08222 6.10773 5.10267
2 6.86266 2.22534 12.0175
2 2.22536 6.41516 8.67803
2 10.2689 6.78598 12.8309
2 12.0799 5.24431 9.27105
2 6.41347 11.1507 1.48653
2 10.1413 7.44764 9.55119
2 4.52915 11.2338 2.88847
2 3.68129 4.39396 9.20672
2 9.18543 4.88231 2.50135
2 1.92166 9.47057 9.03752
2 8.99587 10.5076 2.48256
2 11.4825 2.3891 8.83228
2 1.78753 2.44711 0.74938
2 1.37481 4.20209 2.49305
2 8.94332 1.76724 10.793
2 10.2974 8.49295 5.21079
2 2.7404 10.3615 10.8788
2 9.91127 3.77905 4.83075
2 4.70792 1.19775 8.36185
2 2.85827 9.11099 4.69974
2 7.88889 8.70931 11.0139
2 0.409299 8.78678 0.596423
2 2.9034 1.80377 4.96639
2 11.1158 1.24275 0.785909
2 11.2068 11.3216 7.46207
2 11.0976 11.8612 1.75447
2 12.1873 10.7421 9.61887
2 12.0853 11.0165 12.1103
2 12.3696 0.348453 4.68496
2 10.1719 2.00825 3.00013
2 9.67392 9.84542 9.19624
2 1.84498 10.0148 2.49985
2 4.29253 3.46281 7.34186
2 11.48 3.07533 1.52247
2 3.09099 4.41956 4.89213
2 11.3633 9.64678 2.89252
2 10.239 0.244079 9.05838
2 0.570611 9.21056 11.0466
2 1.07239 1.57355 2.71067
2 11.1832 1.41209 11.0295
2 10.5707 11.2183 4.57281
2 10.086 8.78168 11.9796
2 7.39404 2.80836 3.63544
2 1.53795 0.565178 12.5526
2 1.83982 11.9858 4.35335
1 11.3253 6.8842 8.80612
1 4.82056 11.5707 1.34964
1 2.59791 5.36569 9.65758
1 9.26373 5.17491 0.657911
1 2.13324 8.01157 8.36036
1 7.73711 10.4017 1.09683
1 12.4499 4.00382 8.21531
1 3.00379 1.38672 13.0171
1 2.03443 5.04618 3.64384
1 8.40489 2.3049 12.1986
1 11.3352 7.47263 5.72796
1 4.05924 10.7875 11.3882
1 11.4869 4.11249 5.47956
1 5.60754 0.960713 11.473
1 1.88588 8.06245 5.21617
1 6.4104 8.62524 11.927
1 9.94536 9.80902 3.72175
1 1.38526 10.3003 10.0387
1 0.777968 3.02811 1.70856
1 10.1274 1.64686 9.70295
1 2.92183 10.6292 3.87583
1 9.38841 8.66242 10.6182
1 9.10799 3.51801 3.3004
1 4.00408 2.72946 8.85277
1 9.94552 0.697912 1.7394
1 10.617 11.0271 9.05281
1 0.468667 9.30547 2.17302
1 3.57328 3.03635 5.71953
1 11.625 9.3991 12.2599
1 1.34402 1.26978 4.24879
1 12.0625 0.539322 12.615
1 11.1796 12.0726 5.86564
96
 Atoms. Timestep: 6000
2 0.796796 7.31172 4.2856
2 4.59454 12.5747 11.196
2 0.96522 4.30406 3.76997
2 9.30285 2.87174 1.38912
2 0.820597 4.99185 8.07153
2 8.10108 11.4975 0.701851
2 12.4015 8.9216 7.90781
2 3.57919 11.983 1.01846
2 11.1088 7.85506 5.67274
2 3.56121 10.5171 12.7527
2 -0.151941 4.4019 10.3292
2 8.1676 1.47335 13.0808
2 2.50938 8.11597 6.71438
2 6.8368 9.32005 12.4279
2 11.3088 4.1077 5.94751
2 3.95688 1.68221 0.883778
2 11.1657 6.06507 3.70438
2 5.02435 10.2256 10.6313
2 3.87438 6.29899 4.25273
2 9.14764 4.64449 -0.218928
2 1.99576 6.93817 9.01898
2 6.10499 1.17894 12.9216
2 10.9551 6.23068 7.7348
2 5.53974 9.88685 1.15351
2 10.0514 8.14764 8.87238
2 5.11184 10.7632 2.88461
2 2.6789 4.85205 10.1846
2 6.2143 0.820059 2.09095
2 2.10911 9.72479 8.6049
2 8.77823 9.29313 0.754448
2 10.7998 4.1707 8.98611
2 1.86173 1.90855 2.0953
2 2.95515 4.39708 3.78573
2 10.2775 2.63725 11.4697
2 11.9277 8.68846 3.39654
2 2.64715 11.5574 10.2953
2 11.2668 2.73302 2.96036
2 3.93048 2.78256 11.3956
2 5.88698 10.1179 6.00507
2 7.93023 9.44024 10.0132
2 10.8468 10.2481 0.203479
2 3.73151 1.33768 6.31089
2 11.2253 1.34808 0.767816
2 11.4415 -0.155624 7.68066
2 7.0281 7.40865 1.56467
2 0.0990316 11.6135 9.3317
2 11.4633 12.0313 12.1435
2 1.46391 12.3882 5.62974
2 10.6415 0.8804 3.6395
2 10.2734 10.7042 8.78847
2 3.35852 9.27031 4.57333
2 4.59638 3.07104 8.64479
2 2.48525 4.6366 1.41921
2 4.45639 4.23676 6.13429
2 10.0949 10.5042 2.51516
2 10.7481 1.37864 9.95789
2 0.697162 10.3647 11.2706
2 1.98698 2.21177 4.37789
2 12.7509 1.68846 11.0163
2 11.676 11.2614 4.84845
2 10.4254 9.55513 10.9905
2 3.97237 1.47312 4.13406
2 1.12806 0.804066 13.0828
2 3.78211 12.0131 5.11465
1 11.1184 7.79877 7.36763
1 3.87314 10.1817 1.41521
1 1.27066 5.55052 9.65311
1 7.35291 0.574764 1.12359
1 1.77622 8.46913 7.90744
1 7.08134 8.8417 0.896517
1 11.8451 4.93156 7.45577
1 2.40185 0.734331 1.02424
1 4.40562 4.8869 4.46991
1 9.14508 3.01539 12.6749
1 11.6389 7.45927 4.38306
1 3.90152 11.347 11.2441
1 11.5662 4.27944 4.16792
1 4.61669 1.38423 12.1844
1 2.50806 7.76315 4.58948
1 6.54143 9.90514 10.8041
1 11.2286 10.2683 3.59473
1 1.41819 10.7958 9.83971
1 2.16201 3.4099 3.06194
1 11.7192 2.81731 10.1908
1 4.60659 10.6743 4.72607
1 9.56988 9.34577 9.63806
1 4.7535 1.75954 2.4668
1 3.97205 3.77898 10.0844
1 10.1712 1.7032 2.03686
1 11.044 11.9755 9.16292
1 9.53862 10.7877 1.16063
1 3.90944 2.87625 6.98564
1 11.7613 10.147 11.8387
1 2.72341 0.75996 4.85174
1 12.122 1.05285 12.5368
1 0.107711 11.945 6.15052
96
 Atoms. Timestep: 8000
2 2.32579 6.80858 4.4102
2 4.29328 1.31468 11.9462
2 1.90313 4.1998 4.3772
2 9.30824 2.7273 12.2997
2 0.509121 4.9647 7.64824
2 8.05413 11.714 0.764583
2 0.445339 8.52472 7.73663
2 2.73028 9.69185 0.469138
2 11.8838 7.99874 4.84863
2 5.02655 11.3143 12.2996
2 11.0666 3.91742 9.38609
2 8.5231 4.32594 11.3204
2 2.87861 7.76781 7.13576
2 6.84577 8.35138 11.5044
2 11.1935 4.92418 4.95127
2 3.99843 2.90853 1.18627
2 0.61501 5.78595 3.82272
2 6.3872 11.1158 10.8586
2 3.48082 5.59841 7.10284
2 8.74146 4.72408 1.66535
2 0.925777 6.84149 9.87474
2 3.65228 0.42524 1.72157
2 10.4993 6.28303 6.30358
2 4.83117 8.99089 1.27883
2 10.2682 8.47874 7.70514
2 4.23877 10.4972 3.01943
2 0.740544 4.19975 11.0838
2 6.79951 1.87591 2.58787
2 1.83512 9.7102 9.23632
2 7.84104 9.04079 1.35608
2 11.7555 3.1576 6.68072
2 6.58043 3.71101 12.7203
2 4.09416 5.60252 4.88187
2 8.99874 3.75461 10.0088
2 1.14979 7.70476 2.19678
2 4.45875 11.6111 9.82695
2 12.0354 3.0139 2.68655
2 2.077 2.99516 12.8725
2 6.63468 10.0909 5.13282
2 8.21082 9.38682 8.90283
2 10.0297 9.09346 12.844
2 3.81599 1.07034 7.65216
2 10.8256 1.14979 0.419279
2 11.9077 0.779635 8.18256
2 6.47264 6.58521 1.55964
2 1.66979 11.6228 8.29642
2 11.3952 11.4912 10.9943
2 1.82921 0.840571 6.11267
2 9.65237 1.67069 2.35638
2 11.1525 10.4576 8.39497
2 4.61648 8.12258 5.41745
2 1.99933 2.53282 9.99318
2 5.42311 3.70082 4.04337
2 1.9981 4.57835 9.38003
2 9.82143 11.1151 2.32737
2 9.72978 3.62432 7.36343
2 0.842269 9.31784 11.9213
2 3.53081 2.25167 5.37275
2 9.918 1.47208 9.81142
2 11.8991 12.3767 2.11001
2 10.0847 9.86388 10.5214
2 5.43812 5.52482 1.21066
2 11.8144 9.55248 1.96797
2 4.56747 11.5626 5.55892
1 11.1135 7.78408 6.43643
1 4.06348 10.6638 1.38106
1 0.430192 5.02854 9.60469
1 8.03912 1.63678 1.50872
1 1.69588 7.98656 8.63312
1 6.41607 8.17997 0.842018
1 10.7933 4.55433 6.72142
1 1.47876 8.87432 0.984603
1 2.67542 4.22952 7.92497
1 8.13382 3.6684 0.520099
1 0.97402 7.37097 3.92301
1 5.26693 0.373751 11.0028
1 0.305187 4.17702 4.06199
1 3.26282 1.66489 0.760107
1 3.31806 7.02669 5.6999
1 7.10291 9.62455 10.183
1 11.4846 10.9785 2.98465
1 3.06098 11.1291 8.95094
1 3.80809 3.89063 4.77966
1 9.54812 2.87902 8.8379
1 4.92604 9.90655 4.56487
1 9.84806 9.38364 8.89638
1 4.93555 4.04973 0.515081
1 1.72486 3.34108 11.45
1 11.3365 1.89234 1.84056
1 12.0997 11.5786 9.26839
1 8.90877 10.3073 1.18254
1 2.91561 1.86957 8.69746
1 11.2238 9.83668 11.6297
1 3.57518 0.713833 6.07031
1 10.1043 1.11262 11.5743
1 0.750183 1.76795 7.04682
96
 Atoms. Timestep: 10000
2 2.59357 5.94238 4.42004
2 4.13745 1.45926 0.549471
2 1.70035 3.51041 3.05333
2 5.89415 3.43373 4.38027
2 0.531618 4.28978 7.05485
2 6.73828 1.15267 2.10732
2 1.54 8.20096 7.08935
2 3.17275 8.4625 3.715
2 0.57209 7.9523 4.92578
2 4.31029 11.2394 2.00725
2 2.30169 5.07991 8.60505
2 8.66632 0.94835 12.4581
2 4.14044 6.18656 6.76703
2 5.91001 8.84009 9.91817
2 11.839 4.61699 5.06754
2 6.30583 3.10662 11.8841
2 1.05021 6.07251 3.12745
2 4.55406 9.14719 8.11682
2 6.12476 4.93537 6.7115
2 11.1694 1.28269 11.5953
2 3.3129 7.24034 9.03936
2 3.20119 11.3242 4.45776
2 11.2267 6.46951 6.06873
2 4.55645 9.32098 1.60857
2 10.8193 9.14229 6.6337
2 4.72045 9.59696 4.54322
2 2.53547 5.65479 10.7773
2 6.97287 1.83052 5.19137
2 4.19529 10.115 9.97042
2 5.98086 11.5815 12.7412
2 10.8044 2.80212 6.48752
2 8.36093 1.94052 10.2745
2 3.49674 4.8175 4.57808
2 8.37124 8.14564 7.38257
2 1.25582 7.84216 2.26503
2 3.17781 11.2821 11.8556
2 10.7032 3.39832 3.44261
2 3.74552 4.18076 11.9488
2 6.11593 8.9004 6.85077
2 7.70039 10.1403 7.27233
2 7.91792 9.85935 0.586781
2 0.94911 2.35315 7.68989
2 11.0764 1.59915 2.4748
2 11.2676 11.9518 8.00745
2 5.58144 8.25066 0.706155
2 0.570711 10.4586 9.96062
2 10.1413 11.4244 10.5827
2 1.67842 1.16642 6.10995
2 8.95439 2.26594 3.37913
2 9.95683 9.97766 8.61577
2 5.43903 6.68869 5.08327
2 1.65243 3.44947 10.2912
2 4.17686 3.02554 1.7825
2 5.07069 5.18206 8.81557
2 8.92854 11.6775 1.87022
2 9.46978 5.74211 6.60828
2 10.4929 9.00617 0.781936
2 2.76808 1.95661 3.93596
2 1.51797 3.24264 0.762611
2 9.75074 0.286508 4.24705
2 7.83726 7.72701 12.1377
2 6.82811 3.88772 9.53669
2 10.8317 9.81497 2.88379
2 4.57509 1.41928 5.46287
1 11.9543 8.0932 6.38399
1 3.72782 9.76733 3.34464
1 3.51705 5.51955 9.59934
1 7.29015 2.15362 3.60229
1 3.18484 7.82725 7.4899
1 6.39786 8.3032 11.5335
1 11.0299 4.83065 6.33228
1 11.9622 8.86899 1.6894
1 6.41146 4.4406 8.30739
1 9.60502 0.985523 11.1405
1 1.79449 7.55598 3.87727
1 4.1326 11.6493 0.595443
1 0.381461 4.36111 3.53445
1 4.97766 3.13689 12.6567
1 5.09899 4.96818 5.39212
1 6.39759 9.53458 8.30782
1 9.69361 11.0038 2.97502
1 2.43618 10.759 10.2951
1 3.45961 3.40132 3.40581
1 8.58913 6.73177 7.8141
1 5.38605 8.53599 5.6242
1 9.28891 9.56964 7.25477
1 6.68289 2.50068 10.4742
1 1.82239 4.27213 11.9073
1 10.3249 1.87019 4.14464
1 10.8715 11.0948 9.2179
1 7.52226 11.683 0.890605
1 1.07691 3.69636 8.52567
1 9.14828 8.47742 12.2594
1 2.99597 0.869068 5.05876
1 11.7535 1.78471 0.805622
1 11.7898 1.53198 6.62112
96
 Atoms. Timestep: 12000
2 1.6866 4.85894 3.26511
2 3.4374 0.82431 1.49942
2 1.06213 3.30888 4.43747
2 5.97576 3.5838 3.88609
2 1.8425 7.01854 8.61069
2 4.98139 2.85437 1.84011
2 2.47371 8.41596 6.37604
2 2.2669 7.92272 3.42165
2 1.75259 6.85725 5.04131
2 3.73773 9.78405 2.06122
2 3.71486 6.33423 10.3765
2 8.33113 11.9095 12.0475
2 5.33737 6.42034 6.03276
2 7.83009 7.52311 7.83938
2 11.6385 4.04216 7.12527
2 3.10391 3.39403 11.7476
2 11.2199 6.0379 4.82845
2 5.51701 8.73813 6.40893
2 5.52517 3.78829 5.99221
2 9.40612 2.5293 11.1098
2 4.13662 6.60681 8.05445
2 3.79716 10.3079 3.98757
2 0.665376 6.05123 6.97453
2 11.5216 5.99704 1.92858
2 10.9508 8.5645 5.7416
2 5.50403 8.01533 2.69372
2 12.0468 10.0808 12.4752
2 7.80311 7.35658 1.9764
2 1.9849 8.9712 10.1775
2 5.76384 10.4898 1.26952
2 0.88835 3.57168 9.24454
2 6.67046 1.37984 10.4394
2 4.07425 4.15732 4.47835
2 10.2691 8.31667 7.93997
2 11.4205 7.76583 2.84544
2 3.52438 10.7093 11.3565
2 10.2806 3.24035 4.12827
2 1.98729 5.21554 0.905112
2 6.93569 8.27329 4.4592
2 8.5351 9.54962 6.55953
2 7.54628 9.32729 0.92322
2 2.11595 4.72889 10.5732
2 10.6711 3.19383 1.32925
2 1.00165 2.3639 11.0897
2 6.36018 7.38195 9.22043
2 11.8389 11.0328 10.4051
2 9.32675 11.5722 9.90178
2 3.6886 2.32934 9.65803
2 8.00163 3.00962 2.77175
2 10.8374 10.6329 7.7837
2 6.96017 5.83491 4.57033
2 1.52816 6.9623 11.6559
2 2.52541 3.26788 2.37007
2 5.34432 4.79512 8.30164
2 7.44722 1.03962 1.81938
2 10.7629 5.96682 9.15203
2 9.92179 8.56088 1.45602
2 3.53168 1.76084 4.52664
2 11.0241 4.41923 11.8553
2 10.1084 1.46945 2.96266
2 8.48131 8.22316 11.0054
2 5.92387 2.55633 8.54341
2 10.6755 10.4699 2.82238
2 5.45343 1.10078 3.35254
1 0.838581 7.57516 6.43987
1 3.88923 8.7414 3.28067
1 5.00327 6.28263 9.15195
1 6.50558 2.29852 2.73202
1 4.37568 7.63833 6.78725
1 8.02117 7.37402 9.71821
1 11.8794 5.19739 8.42607
1 11.4859 9.09523 1.88504
1 5.25078 3.54685 7.44782
1 8.58787 1.22371 10.6348
1 0.937148 6.56792 3.38633
1 4.17186 10.9404 0.949451
1 11.283 4.10321 5.29924
1 3.31144 2.7007 1.13879
1 5.72583 4.8325 4.92085
1 7.2189 8.54579 6.13325
1 9.43967 11.2258 2.96795
1 1.80022 10.168 11.0003
1 2.7711 3.34002 4.1243
1 10.5259 7.50709 9.34697
1 6.75615 7.01163 3.45101
1 10.1144 9.70526 6.94533
1 5.28362 1.97878 9.9434
1 12.0258 5.76233 12.3246
1 9.89258 2.98879 2.7906
1 10.8016 11.3553 9.2885
1 7.44011 11.0235 1.03085
1 2.33576 7.40192 10.3019
1 8.51166 8.25955 0.97864
1 4.55146 11.7047 4.70014
1 10.9702 2.92212 11.5555
1 2.39136 3.07927 10.1834
96
 Atoms. Timestep: 14000
2 2.85451 5.60153 3.61345
2 3.71241 0.658771 1.18041
2 2.11007 3.88532 4.76117
2 7.80987 2.37006 4.34623
2 9.65272 5.84122 9.91102
2 6.21459 2.17943 2.40498
2 3.57962 9.02514 6.48696
2 3.33941 8.01723 3.19835
2 1.58343 7.87896 4.59057
2 3.84336 10.0443 1.39809
2 2.97474 4.80193 9.46084
2 7.23512 0.952665 10.2473
2 5.05663 6.91227 5.30542
2 6.69999 8.56113 10.5603
2 10.9924 4.18569 5.66002
2 3.39348 3.0495 0.345988
2 11.7156 5.70406 4.05138
2 5.79035 8.47357 7.87823
2 6.97581 5.09398 6.63215
2 7.28663 5.81384 11.4076
2 3.5662 7.06474 7.70351
2 4.69695 10.7179 4.30694
2 0.599394 5.67876 8.64443
2 2.15918 6.47557 1.50898
2 0.985838 9.89373 5.9002
2 6.20406 9.09135 3.05727
2 11.5234 9.28294 12.1886
2 9.31712 9.29224 5.39279
2 1.19039 8.02148 9.77363
2 4.70893 11.6394 11.3344
2 1.12098 2.9631 7.75737
2 6.17176 1.20859 8.42536
2 5.14297 4.81624 4.42345
2 7.9706 3.02061 10.6452
2 11.9954 7.4394 2.42099
2 2.78374 9.21437 11.5649
2 11.3775 3.09043 3.09977
2 2.6943 6.70501 10.5693
2 7.58137 9.19012 7.34793
2 7.51928 6.90433 8.60474
2 7.0355 10.9933 12.8311
2 1.56641 2.59716 10.7641
2 11.7327 2.06585 0.830846
2 12.0604 0.800902 8.52935
2 4.90421 6.48543 10.5059
2 9.6392 11.0751 10.1514
2 8.77614 1.10289 8.31892
2 3.22919 1.72007 8.15037
2 9.01306 1.62786 2.40538
2 10.3142 10.558 7.4215
2 7.52807 6.75807 5.65753
2 11.7214 6.47974 11.2331
2 3.57785 3.39614 2.83232
2 5.1824 5.26487 8.81719
2 5.30159 2.20273 12.2055
2 9.96311 4.39791 7.70871
2 9.08772 8.72753 1.63458
2 3.86595 2.14282 4.83749
2 1.38144 4.78129 12.1345
2 10.6889 11.8968 2.66982
2 6.29977 8.07616 0.885234
2 7.48556 3.77018 8.36356
2 10.5011 9.14929 3.12577
2 6.00917 0.929797 4.14608
1 2.42803 9.13889 5.52535
1 4.35676 9.38849 2.93878
1 3.7049 6.4768 9.35872
1 7.14272 1.48544 3.19562
1 4.81759 7.75233 6.63186
1 6.27909 7.09415 11.3786
1 11.5805 4.63632 7.2942
1 10.8234 8.39857 1.69251
1 6.80869 5.31231 8.40352
1 7.69906 2.39228 9.14438
1 1.70514 6.97004 3.27514
1 3.48835 10.8986 12.0877
1 11.8178 3.79326 4.45239
1 4.4172 1.95305 1.57883
1 6.15037 5.74533 5.14233
1 7.23097 8.53065 8.99442
1 10.6006 10.6327 3.66093
1 1.27021 9.16754 11.1176
1 3.79331 3.97236 4.54145
1 8.80214 4.90833 11.2438
1 7.95607 8.35879 5.97919
1 10.6911 10.0136 5.97424
1 4.69994 1.22409 7.65893
1 1.69415 6.38348 11.9837
1 10.6624 1.91087 2.17869
1 10.3208 11.8577 8.67284
1 6.27966 0.85949 11.5171
1 11.3659 6.62614 9.66236
1 7.37318 9.49535 1.48564
1 4.50978 0.689547 5.13695
1 1.74271 3.12597 12.0397
1 1.42218 1.98273 8.99831
96
 Atoms. Timestep: 16000
2 1.92259 9.73617 3.53271
2 3.56068 1.21892 11.6926
2 2.0312 2.32887 6.34044
2 6.54155 3.10822 3.34984
2 9.20643 7.83722 9.63693
2 6.58823 1.46271 1.74578
2 3.13792 8.34578 6.91289
2 10.3418 1.20776 11.7972
2 1.47967 7.34797 5.24306
2 3.61942 9.50048 1.86662
2 4.44529 4.06472 11.0517
2 7.38979 11.2599 10.5095
2 4.97503 6.7544 6.76876
2 7.43588 6.92908 8.93353
2 1.0859 4.50204 6.37128
2 2.42848 3.50039 12.0995
2 3.41967 4.05303 4.53471
2 5.9057 8.86462 7.43761
2 5.36229 4.79111 6.59124
2 8.48343 5.26365 10.1929
2 3.71363 6.9364 9.30812
2 4.27127 10.5832 4.44646
2 0.885082 6.53083 7.82295
2 1.5162 7.20124 2.40488
2 0.545083 9.4267 6.24534
2 5.28862 8.69265 2.89826
2 10.4251 9.72528 1.06611
2 9.42774 8.60807 5.31381
2 11.9772 8.40287 8.37401
2 5.0312 10.8238 11.9389
2 1.82893 3.25039 8.14033
2 6.62778 11.3521 7.88221
2 5.69826 5.23998 4.01133
2 8.27156 2.68909 8.62521
2 10.9947 8.63304 2.70221
2 2.08308 10.8307 11.8279
2 11.529 3.52121 4.14938
2 3.43813 6.40661 11.9829
2 7.87714 8.13188 6.95598
2 7.42741 4.92768 8.40311
2 7.66743 10.2707 0.830263
2 11.7731 3.88016 9.85052
2 10.9831 3.45475 1.07623
2 1.0543 11.2885 8.37475
2 6.01563 5.79439 11.0085
2 10.862 9.96352 10.0157
2 9.14909 0.998591 9.33217
2 3.6821 1.0954 7.87367
2 8.83327 2.5238 2.9072
2 10.072 10.5291 7.0329
2 7.03146 6.89393 5.42995
2 11.614 7.83442 11.3918
2 4.54195 3.20589 2.01385
2 4.73623 5.00341 9.23861
2 5.64195 2.4202 11.3177
2 10.1715 4.65767 7.80124
2 8.22888 7.72158 2.19602
2 4.79222 2.15446 4.78324
2 0.928697 5.77263 11.7038
2 11.8617 1.41114 2.7591
2 7.01997 8.07715 11.4256
2 6.3658 2.27819 7.92859
2 11.0926 10.7286 4.34529
2 6.74095 11.4209 4.02829
1 1.55751 7.95167 6.83243
1 3.85097 9.37692 3.43354
1 4.47821 5.71212 10.7068
1 7.31957 1.70867 3.04611
1 4.42429 7.78427 7.7572
1 7.43089 6.54212 10.5564
1 12.1383 4.78238 8.14173
1 9.75989 8.16513 1.78599
1 5.79707 4.1547 8.1461
1 7.69667 1.02086 9.10639
1 1.20702 8.01093 3.70085
1 3.6312 10.5 12.0687
1 1.878 3.65537 5.19308
1 3.87895 2.76454 12.0981
1 5.76902 6.02078 5.56283
1 7.5668 8.4102 8.53229
1 1.21148 11.148 3.47665
1 11.3555 10.8431 11.6739
1 4.87538 3.47962 3.57047
1 8.7324 4.34527 8.93112
1 7.79498 8.20291 5.40529
1 10.2584 9.76737 5.66951
1 5.23419 1.12043 7.52941
1 1.60896 7.24246 12.4264
1 10.6135 2.7102 2.68161
1 10.3199 11.0252 8.76483
1 6.33313 0.692425 11.9818
1 10.7419 8.32214 10.0854
1 6.84217 8.48559 1.66735
1 5.30182 11.6108 5.14343
1 0.865829 4.08098 11.5842
1 2.07189 1.5053 7.7866
96
 Atoms. Timestep: 18000
2 3.64501 9.33129 4.75368
2 3.45952 1.36807 0.956251
2 1.87287 2.90565 5.98019
2 6.49325 3.12327 2.21243
2 9.26217 8.41519 9.26332
2 6.45289 1.23386 1.52348
2 4.33153 8.51466 7.02014
2 11.9924 0.775683 1.18493
2 10.6065 6.60802 4.35117
2 3.33311 10.4076 2.17078
2 3.53796 3.60309 10.4315
2 6.56778 0.905613 10.3015
2 5.70028 7.18562 7.77078
2 7.20559 7.02019 9.73625
2 2.29781 5.27602 9.23451
2 2.22137 2.92416 11.8115
2 3.9942 3.10711 3.52051
2 5.99022 8.70348 9.2849
2 5.76325 6.11439 6.03361
2 7.68192 4.72283 10.4104
2 4.27262 7.13903 9.76252
2 5.57863 10.7533 3.77448
2 11.0013 5.14257 6.8586
2 0.957596 7.11398 1.88083
2 11.4742 8.14641 5.86259
2 5.81299 8.3335 2.79813
2 10.3502 10.7042 1.30265
2 10.0614 10.4019 4.5154
2 10.4688 7.08128 7.62011
2 4.64795 10.804 11.5091
2 0.89332 3.1272 7.77592
2 6.04137 2.13378 8.4351
2 5.27992 5.4414 3.39546
2 8.55535 2.67869 8.92139
2 10.6264 9.13126 2.897
2 1.81192 10.1639 12.1727
2 0.979272 2.56457 3.28337
2 2.99994 6.65673 11.6438
2 7.93288 8.15758 7.44096
2 7.15535 4.4426 8.02164
2 7.18966 9.65674 12.1223
2 11.7216 3.37951 9.94644
2 10.9067 2.9635 0.894314
2 11.8283 0.599609 7.96402
2 5.2104 6.08349 11.0968
2 10.8238 10.3218 10.3382
2 8.93788 11.4973 9.40463
2 3.57398 2.69243 7.22823
2 9.25333 1.04645 2.39496
2 10.7927 9.9027 7.02437
2 7.02547 7.50927 5.01389
2 11.639 6.82621 10.6464
2 4.11042 4.1138 1.24151
2 5.23094 5.29876 9.21977
2 5.16837 1.79545 11.6715
2 10.2061 4.82269 8.90826
2 8.17992 9.55114 2.60768
2 3.40423 1.72963 5.06209
2 0.899784 4.98872 11.8164
2 4.36821 10.9315 6.17656
2 7.05569 6.61079 1.00813
2 5.21351 4.40858 7.02291
2 1.85723 10.3447 6.30643
2 6.43747 1.4453 4.02223
1 11.1806 6.42936 6.02591
1 4.68772 9.56986 3.37611
1 3.84721 5.4295 10.2222
1 7.49827 1.89262 2.67462
1 4.8009 8.37007 8.56123
1 6.88932 6.14026 11.1155
1 11.7544 4.481 8.50228
1 9.59675 10.5818 2.87264
1 5.84769 5.56015 7.78681
1 7.45457 1.4814 9.21679
1 10.5324 7.50057 2.80432
1 3.34122 10.8064 0.568406
1 2.40737 2.66733 4.37224
1 3.79106 2.7659 11.937
1 6.35901 6.00832 4.46881
1 7.58278 8.67807 9.14113
1 3.30663 9.67809 6.30053
1 11.4291 10.7038 11.7654
1 5.18216 4.13754 2.6647
1 8.53099 4.09591 9.15234
1 7.67171 8.56757 5.90545
1 11.3397 10.0206 5.59466
1 5.30942 2.58545 6.98645
1 1.41876 6.6818 12.0516
1 10.8659 1.94157 2.16442
1 10.6166 10.8539 8.76305
1 6.23567 11.3299 11.6341
1 10.7954 7.66036 9.08738
1 7.1169 8.31186 1.60103
1 4.78592 1.00426 5.03517
1 11.9279 3.42572 11.4269
1 1.68052 1.90352 7.27416
96
 Atoms. Timestep: 20000
2 2.45351 8.24501 3.30089
2 2.42193 1.95082 11.6785
2 2.21085 1.95337 5.64191
2 6.45332 2.65836 3.30959
2 9.15589 9.19274 9.79636
2 6.81983 1.47697 1.41825
2 3.07173 8.32512 7.58462
2 10.3386 11.3549 1.32516
2 1.11558 7.02337 5.15496
2 2.87631 10.4911 2.19725
2 4.06266 4.81778 10.7142
2 8.02531 11.1466 9.20166
2 6.21967 7.12585 6.89037
2 7.00407 8.0596 9.81147
2 2.71325 5.48455 9.25062
2 2.17519 4.13472 11.6508
2 3.45825 3.32929 3.64983
2 5.81106 9.51492 8.87462
2 6.57632 4.99236 5.8674
2 7.91943 5.67663 10.5497
2 3.97467 7.71448 10.0532
2 4.12415 9.54133 4.69902
2 1.28124 5.57491 7.55734
2 11.6333 7.29311 1.69982
2 10.869 8.32617 6.40964
2 5.20311 8.51096 2.58049
2 9.98296 9.4288 1.2394
2 10.5368 10.0736 4.3448
2 10.3425 7.12957 7.99534
2 3.71477 10.8765 11.4936
2 2.21755 3.56332 8.02331
2 7.29718 1.85073 7.73504
2 6.72292 4.81411 2.936
2 8.89455 3.03359 9.56793
2 10.1985 7.78809 3.87844
2 0.701169 10.085 11.677
2 1.0167 1.24025 3.43559
2 2.46618 6.61426 11.6208
2 7.96064 8.9588 7.19442
2 8.42539 5.41027 8.06952
2 5.54096 10.2464 1.20185
2 0.93934 3.46192 10.1512
2 11.4092 2.23072 1.38785
2 1.7089 0.768892 8.2924
2 5.43416 6.57868 11.0297
2 10.9113 10.8026 9.87232
2 9.7226 1.49281 8.27134
2 5.1539 1.38601 5.99615
2 9.18246 1.21734 3.38687
2 11.2036 10.3211 7.17471
2 6.84335 7.35703 4.91308
2 10.9775 7.0391 10.2866
2 4.03602 3.71067 1.36039
2 6.36404 5.77781 9.11174
2 4.38888 1.96066 11.4361
2 10.561 5.15651 8.83272
2 8.0317 9.31111 2.35709
2 3.75896 0.744053 3.92693
2 11.1645 5.24385 11.8685
2 5.33201 9.32808 6.43038
2 7.03023 7.89782 12.2925
2 5.94116 3.95445 7.70372
2 2.08961 10.0741 5.37984
2 6.36425 11.4736 3.8859
1 11.268 6.64078 6.63402
1 3.63059 9.05571 3.08797
1 3.54135 6.28819 10.6804
1 7.46315 1.39865 3.19463
1 4.11237 8.78554 8.80434
1 6.99612 6.81476 10.6174
1 1.3972 4.54673 8.80289
1 9.59161 9.34416 3.14178
1 6.5429 5.49965 7.24827
1 8.28801 1.7389 9.00994
1 1.07298 7.31857 3.38045
1 2.13389 10.9002 12.0638
1 2.58337 2.01854 3.84892
1 3.45945 3.4056 11.491
1 6.75314 5.7574 4.37503
1 7.68173 9.40093 8.79696
1 3.52683 9.17251 6.0777
1 9.99153 10.3835 11.2382
1 5.09391 3.63902 2.68758
1 8.97343 4.68082 9.65239
1 6.86046 8.4581 6.04238
1 11.4103 9.84794 5.69335
1 5.94938 2.45611 7.10633
1 11.6498 6.676 11.6851
1 10.6272 1.3221 2.62506
1 11.1131 11.2362 8.33817
1 5.32812 0.92797 12.3011
1 10.0228 7.98825 9.4169
1 6.45056 9.05173 1.49697
1 4.92204 11.3653 4.7123
1 11.3537 3.59411 11.8013
1 2.24057 2.02822 7.36881
96
 Atoms. Timestep: 22000
2 3.00629 7.22744 4.98949
2 3.05195 11.0461 1.36441
2 1.74838 3.11759 5.87496
2 5.75383 3.98056 2.21416
2 9.46921 8.5472 11.6859
2 6.92652 1.74768 11.8295
2 2.52377 8.52904 9.28913
2 9.85567 0.863553 1.34207
2 1.60571 4.73729 4.3418
2 3.92873 8.99225 1.90491
2 4.49479 3.58744 11.917
2 6.76409 10.815 8.04152
2 4.66589 6.5803 6.01663
2 7.11774 8.02399 8.72912
2 3.3643 4.44122 9.46993
2 2.56761 2.101 11.305
2 3.92599 4.21612 4.09137
2 5.22212 8.99486 9.10854
2 7.21246 6.2753 5.18202
2 8.31036 5.248 8.78238
2 4.57119 6.46725 10.1728
2 5.02261 10.5273 2.69965
2 1.41683 6.45814 8.08499
2 2.08941 6.19021 2.54678
2 11.1567 9.09841 6.99971
2 6.68964 8.29766 1.39152
2 10.4369 9.42252 2.27368
2 10.4604 10.1731 4.78807
2 10.698 8.31286 9.58681
2 4.54933 10.0322 11.2307
2 1.92586 3.95634 7.76889
2 6.30286 2.90683 9.06529
2 5.98991 6.2473 3.02812
2 8.2296 2.58087 7.59047
2 11.312 7.76506 4.49694
2 1.63018 9.88654 11.8364
2 1.19609 2.49411 2.80974
2 3.18513 5.53764 11.6919
2 5.59756 8.68802 6.47613
2 7.63897 4.70282 6.31356
2 6.93703 9.91984 10.8365
2 11.7314 4.32922 10.0111
2 10.5941 2.7314 12.2201
2 1.06568 1.60074 9.04312
2 5.96945 4.9872 10.2379
2 10.2152 10.4294 10.8219
2 8.95301 1.47837 9.29948
2 4.11167 1.94458 7.56294
2 8.63672 2.80936 2.29387
2 10.3594 10.9692 7.73585
2 5.49938 8.93721 4.13423
2 11.5343 6.43939 11.4678
2 2.99809 3.19527 2.63973
2 5.99168 6.19955 7.83859
2 4.38153 1.32896 11.5355
2 10.5211 3.43479 6.87956
2 8.44498 8.20723 3.72661
2 3.73293 1.853 4.85396
2 1.73324 3.79222 12.1659
2 3.49381 9.74625 6.27319
2 7.30049 7.18731 10.5948
2 5.17687 3.94786 6.92613
2 1.72857 0.909485 6.64614
2 6.10771 1.82327 3.10578
1 1.14345 8.1521 8.32865
1 5.19576 8.75874 2.5843
1 4.43053 5.14031 10.8447
1 7.07998 2.79018 2.08385
1 4.13327 8.08572 9.98095
1 6.91416 6.35753 9.15866
1 1.94472 5.07048 8.87462
1 10.1951 8.85472 3.72198
1 6.14871 5.40152 6.25142
1 7.34831 1.64742 8.68588
1 1.67141 6.4379 4.20271
1 3.20538 9.67549 11.8325
1 2.38019 3.14186 4.40459
1 3.70478 2.26357 1.4301
1 7.35453 7.10693 3.85835
1 6.21809 9.36055 7.98932
1 3.46525 11.5306 6.3282
1 10.8932 10.4584 12.2978
1 5.26151 4.79286 3.36987
1 8.82667 4.27445 7.31694
1 4.42426 8.19991 5.47224
1 11.2054 10.4931 6.32821
1 4.77414 3.26379 8.34547
1 1.78849 5.4407 1.02295
1 10.0793 2.05756 2.52807
1 10.4285 11.1342 9.42207
1 5.75385 11.2496 11.3058
1 10.5923 7.55509 11.0694
1 7.7766 8.57253 11.3905
1 5.01465 1.15791 3.9902
1 11.7142 2.91463 10.9426
1 1.08089 2.57941 7.33083
96
 Atoms. Timestep: 24000
2 1.32535 6.87293 6.05186
2 4.41319 11.0039 11.4753
2 1.45157 2.02165 6.74057