96
 Atoms. Timestep: 0
2 0 7.95642 4.74695
2 4.63304 0 11.358
2 0 4.63304 4.74695
2 7.95642 0 11.358
2 0 4.63304 8.47514
2 7.95642 0 1.8641
2 0 7.95642 8.47514
2 4.63304 0 1.8641
2 10.7421 8.43088 6.61105
2 4.15858 10.7421 0
2 1.84736 4.15858 6.61105
2 8.43088 1.84736 0
2 1.84736 8.43088 6.61105
2 8.43088 10.7421 0
2 10.7421 4.15858 6.61105
2 4.15858 1.84736 0
2 10.5201 6.29473 5.04003
2 6.29473 10.5201 11.6511
2 2.06934 6.29473 5.04003
2 6.29473 2.06934 11.6511
2 2.06934 6.29473 8.18207
2 6.29473 2.06934 1.57102
2 10.5201 6.29473 8.18207
2 6.29473 10.5201 1.57102
2 10.1594 8.65935 9.20274
2 3.93011 10.1594 2.59169
2 2.43004 3.93011 9.20274
2 8.65935 2.43004 2.59169
2 2.43004 8.65935 9.20274
2 8.65935 10.1594 2.59169
2 10.1594 3.93011 9.20274
2 3.93011 2.43004 2.59169
2 2.43004 3.93011 4.01936
2 8.65935 2.43004 10.6304
2 10.1594 8.65935 4.01936
2 3.93011 10.1594 10.6304
2 10.1594 3.93011 4.01936
2 3.93011 2.43004 10.6304
2 2.43004 8.65935 4.01936
2 8.65935 10.1594 10.6304
2 0 10.703 0
2 1.88643 0 6.61105
2 0 1.88643 0
2 10.703 0 6.61105
2 0 0 1.872
2 0 0 8.48305
2 0 0 11.3501
2 0 0 4.73905
2 11.2706 2.31295 2.18973
2 10.2765 11.2706 8.80078
2 1.31887 10.2765 2.18973
2 2.31295 1.31887 8.80078
2 1.31887 2.31295 2.18973
2 2.31295 11.2706 8.80078
2 11.2706 10.2765 2.18973
2 10.2765 1.31887 8.80078
2 1.31887 10.2765 11.0324
2 2.31295 1.31887 4.42131
2 11.2706 2.31295 11.0324
2 10.2765 11.2706 4.42131
2 11.2706 10.2765 11.0324
2 10.2765 1.31887 4.42131
2 1.31887 2.31295 11.0324
2 2.31295 11.2706 4.42131
1 11.0086 7.83654 8.10972
1 4.75292 11.0086 1.49867
1 1.5809 4.75292 8.10972
1 7.83654 1.5809 1.49867
1 1.5809 7.83654 8.10972
1 7.83654 11.0086 1.49867
1 11.0086 4.75292 8.10972
1 4.75292 1.5809 1.49867
1 1.5809 4.75292 5.11238
1 7.83654 1.5809 11.7234
1 11.0086 7.83654 5.11238
1 4.75292 11.0086 11.7234
1 11.0086 4.75292 5.11238
1 4.75292 1.5809 11.7234
1 1.5809 7.83654 5.11238
1 7.83654 11.0086 11.7234
1 10.1088 10.1088 3.30552
1 2.48067 10.1088 9.91657
1 2.48067 2.48067 3.30552
1 10.1088 2.48067 9.91657
1 2.48067 10.1088 3.30552
1 10.1088 10.1088 9.91657
1 10.1088 2.48067 3.30552
1 2.48067 2.48067 9.91657
1 0 1.60471 1.57853
1 10.9848 0 8.18958
1 0 10.9848 1.57853
1 1.60471 0 8.18958
1 0 10.9848 11.6436
1 1.60471 0 5.03252
1 0 1.60471 11.6436
1 10.9848 0 5.03252
96
 Atoms. Timestep: 2000
2 -0.135462 8.05134 3.69188
2 4.97674 0.202053 11.8856
2 0.451759 3.99635 4.08852
2 9.23536 11.1583 12.9806
2 0.896019 4.43156 7.56861
2 7.65649 -0.156681 2.19499
2 0.702333 8.44736 8.25223
2 4.01495 12.5312 1.84201
2 11.3525 7.55885 6.01775
2 4.5804 10.4753 0.488997
2 3.07881 4.61083 6.33953
2 6.67222 2.44109 0.456257
2 2.27641 9.46592 6.79426
2 7.25388 10.4354 0.270017
2 11.4044 3.78816 6.09777
2 3.95318 2.14419 0.180807
2 11.1398 5.78192 3.87548
2 6.81753 11.2586 11.8765
2 1.73764 6.10196 4.31794
2 5.31789 2.1517 11.4274
2 3.06785 6.59501 8.34453
2 5.58339 1.34348 2.06243
2 12.2108 6.11398 7.34995
2 6.11713 10.6619 2.77754
2 10.4564 8.55921 8.49692
2 3.51724 10.5282 3.57709
2 2.2786 4.19103 9.05436
2 8.38697 2.47821 1.91628
2 3.13698 9.6619 9.04502
2 8.89548 10.2428 2.21775
2 10.8416 3.62869 8.36437
2 3.11199 2.15453 3.65841
2 3.69534 6.36817 4.78121
2 8.32114 2.80681 10.7491
2 10.2011 8.88247 3.93547
2 4.37951 11.143 11.0226
2 10.716 3.25872 3.04026
2 3.05764 2.3084 10.5775
2 2.3667 8.71633 4.9611
2 9.2141 10.251 10.9842
2 0.0974731 10.2661 12.8151
2 1.10362 12.0746 6.592
2 12.0035 1.80918 13.2306
2 10.5317 0.681519 6.94125
2 12.3874 12.3412 0.98475
2 12.4611 12.5768 9.22175
2 12.2773 12.4829 11.4072
2 11.9865 12.2875 4.39124
2 11.0679 1.60022 1.71822
2 10.6675 10.8605 8.39339
2 1.28362 10.0798 1.41444
2 1.59834 1.9028 8.45011
2 0.883613 1.79113 2.3616
2 1.94344 11.8052 8.95529
2 11.3272 10.4035 2.0385
2 9.78532 1.09468 9.53944
2 1.66974 10.4439 10.8991
2 1.05524 1.09333 4.75802
2 10.7275 2.16091 11.306
2 10.2542 11.3077 4.70969
2 11.6837 9.8868 10.8439
2 10.9544 1.47698 4.23445
2 0.581005 2.56414 10.6441
2 2.44711 11.3963 5.02226
1 11.7954 7.6596 7.69641
1 4.61499 10.9635 2.19185
1 2.29489 5.21539 7.71821
1 7.02207 1.29902 1.45655
1 2.42344 8.36476 8.06652
1 7.55606 10.999 1.84831
1 11.8666 4.4517 7.57696
1 4.1005 1.44869 2.13149
1 2.76708 5.11802 4.83306
1 6.84372 2.48036 12.1378
1 11.2496 7.58745 4.49798
1 5.19568 11.2513 12.5015
1 11.5166 4.20817 4.40818
1 3.96146 1.53521 11.9924
1 1.36246 7.84378 4.18908
1 8.16796 10.3214 12.3265
1 10.111 10.2922 3.28373
1 2.89451 10.912 10.0763
1 1.61879 2.6386 4.14796
1 9.84694 2.74381 9.81561
1 3.40776 9.89764 5.16549
1 10.5734 9.69952 9.4907
1 10.0258 1.84752 2.85202
1 1.84112 2.87359 9.66202
1 -0.168161 0.979809 1.43918
1 10.5378 12.5427 8.61171
1 -0.194258 10.6643 1.1617
1 1.02599 0.250345 8.08595
1 0.027266 10.9578 11.4425
1 0.96869 12.3092 4.91155
1 12.3047 1.48553 11.4656
1 10.6474 0.122542 5.10592
96
 Atoms. Timestep: 4000
2 0.120691 8.33225 4.58082
2 5.96452 0.604065 11.8248
2 0.232601 4.72608 5.53056
2 7.36649 -0.12573 12.145
2 12.6062 4.35719 8.54681
2 8.15291 12.752 0.736029
2 0.0762911 7.75725 8.39253
2 4.02584 12.8412 1.06089
2 12.2393 8.1902 6.42391
2 4.47096 11.4363 13.0512
2 1.56742 2.94437 6.3656
2 7.76399 2.32107 -0.152371
2 2.07418 7.77352 6.69789
2 8.10358 10.7655 12.9241
2 10.8232 4.59743 6.68301
2 3.89822 1.90215 -0.205114
2 11.1362 6.29934 4.59935
2 6.76917 10.8579 10.9128
2 1.83003 6.75038 4.47165
2 5.34858 2.87068 12.0217
2 1.519 5.55636 8.53099
2 5.88431 1.0644 1.4145
2 11.1457 6.45352 8.26783
2 6.40726 11.1108 1.58018
2 11.2106 9.36961 8.54339
2 3.7911 9.97046 2.30518
2 0.988837 3.63358 9.50416
2 9.05785 1.16512 2.01372
2 2.21701 8.52672 9.43349
2 9.01425 10.4605 2.41419
2 10.0513 3.65186 9.68542
2 3.51954 1.84605 2.90951
2 1.84297 3.71128 3.58526
2 8.36638 3.03046 11.0514
2 10.4875 8.77217 3.71715
2 3.94424 10.4282 10.3752
2 11.3378 3.28564 3.48292
2 3.33548 2.24739 11.5047
2 2.00287 9.42897 3.82271
2 9.12115 11.0514 10.2065
2 12.3661 11.0849 13.3857
2 1.5761 12.8141 7.15981
2 12.7328 1.43267 -0.349015
2 11.2883 -0.0859789 6.73997
2 12.7128 12.9546 1.53183
2 12.3567 -0.0715562 9.00178
2 12.8024 12.2942 11.6444
2 0.00833581 12.6263 5.92694
2 12.1529 2.56213 1.83127
2 9.67078 11.8201 8.46973
2 1.22741 11.1046 1.6102
2 1.72769 1.08927 8.93371
2 1.21037 1.92933 2.16047
2 1.18932 11.3051 9.49251
2 11.5385 10.5532 1.99635
2 9.95196 0.834318 9.46643
2 1.4319 10.3915 11.5968
2 2.48523 1.02933 4.55361
2 11.0234 1.50812 12.0187
2 11.2426 11.6334 4.1398
2 11.7815 10.3956 10.6965
2 10.8477 1.03574 4.55638
2 0.776354 1.5328 11.7234
2 2.0817 12.1343 4.05737
1 11.6515 7.992 7.93093
1 4.7896 11.0272 1.3122
1 1.23542 3.88242 7.8153
1 7.52056 1.2451 1.22458
1 1.67642 7.27128 8.26085
1 7.91677 11.1062 0.916482
1 11.1032 4.58595 8.29326
1 4.09798 1.23993 1.40429
1 1.72007 4.92926 4.5689
1 7.11022 2.97221 12.3015
1 11.3816 7.78493 4.74851
1 5.14902 11.2878 11.3653
1 11.523 4.60062 5.07984
1 4.29272 1.25413 12.0529
1 1.85804 8.53636 5.08014
1 8.20799 11.5821 11.5441
1 10.5249 10.5045 3.03375
1 2.35495 10.1811 9.96892
1 2.06504 2.35795 3.45772
1 10.0815 2.29185 10.5526
1 2.12405 10.7279 2.94032
1 10.2568 10.1876 9.67681
1 10.7624 1.85952 3.04407
1 1.89625 2.32994 10.2735
1 -0.227683 1.43108 1.57012
1 10.7026 12.915 8.44095
1 12.6937 11.4134 1.1519
1 0.848467 12.7031 8.64064
1 -0.110049 10.7202 11.9389
1 1.75356 -0.0940461 5.55357
1 12.569 0.703649 12.0408
1 11.8965 12.6642 5.2575
96
 Atoms. Timestep: 6000
2 12.2796 7.57122 4.76609
2 4.80543 12.3216 13.1318
2 2.6148 4.17492 4.66478
2 8.17409 12.2522 11.8385
2 2.20062 6.31627 8.22064
2 7.66166 0.390186 1.21867
2 12.4368 7.61633 7.63353
2 4.10759 0.38022 1.55018
2 10.6556 7.8312 5.91539
2 4.74776 9.93327 0.127934
2 2.55196 6.98683 10.7316
2 7.84349 2.27801 12.677
2 2.09587 8.28552 5.91796
2 7.78237 10.4899 -0.0604564
2 11.3336 4.01523 6.19613
2 4.63544 2.18022 12.8757
2 10.6569 6.19454 4.06004
2 6.98624 10.0291 11.2987
2 1.48404 6.26634 5.1008
2 6.25059 0.656767 11.1582
2 1.16725 4.53077 7.31248
2 5.85763 2.30386 1.24376
2 11.2814 5.85978 8.13503
2 5.98892 11.0929 1.9365
2 10.1691 8.05878 8.67388
2 3.31519 10.6018 2.22956
2 2.29955 4.14458 10.6189
2 8.30939 3.07541 1.81438
2 2.45377 8.63649 8.59016
2 8.51295 10.9955 2.28397
2 11.6415 3.12021 8.93039
2 3.13111 3.04796 2.36009
2 3.59017 5.08432 6.77768
2 9.07416 1.74333 10.1043
2 10.9011 9.32196 3.95542
2 4.22707 9.37452 10.4786
2 10.1293 3.71086 3.90925
2 3.20081 0.918886 10.9824
2 1.81977 9.36717 4.15129
2 9.50437 10.0713 11.2773
2 -0.0333495 10.4901 13.0125
2 1.6986 0.405916 6.52565
2 0.183601 1.80465 0.467479
2 11.3335 12.3088 7.10335
2 12.2668 12.5973 1.24495
2 12.6212 12.3026 8.85859
2 11.9718 12.3351 11.8898
2 12.6602 0.54309 4.62407
2 11.098 2.91826 1.70167
2 9.98636 10.9092 8.8676
2 0.806839 11.4449 2.30765
2 1.81742 1.68009 9.13667
2 0.614895 2.55094 3.13635
2 2.54318 11.1684 8.85097
2 10.7754 10.2558 1.74971
2 10.5259 0.706857 9.096
2 1.12153 9.86211 10.6503
2 2.45232 1.65066 4.19637
2 11.1332 1.47836 11.0943
2 10.7493 11.8675 4.0255
2 11.7104 9.42269 10.1327
2 10.0204 1.16091 6.16566
2 0.770134 1.40082 11.2505
2 1.87851 11.8248 4.35885
1 10.9192 7.22739 7.67551
1 4.49887 11.1145 1.31932
1 2.25272 5.68735 9.86109
1 7.378 1.75585 0.803515
1 1.31029 7.99741 7.51357
1 7.28028 11.4825 1.1643
1 12.1182 4.32978 7.57897
1 4.09565 2.48657 1.1703
1 2.05836 4.89338 6.10485
1 7.92151 1.26944 11.4028
1 10.7848 7.82571 4.38651
1 5.28216 10.039 11.5833
1 10.5652 4.69087 4.91568
1 4.92316 0.838892 12.0448
1 1.19711 7.92383 4.54643
1 8.41196 10.6025 12.0997
1 10.3272 10.7022 3.09369
1 2.74899 9.73345 9.66461
1 2.07445 3.03133 3.68969
1 10.4693 2.1545 9.75611
1 1.93812 10.7633 3.27076
1 10.1229 9.5001 9.43228
1 9.69948 3.33404 2.36637
1 2.05394 2.28032 10.5845
1 12.4317 1.45768 1.88866
1 11.0368 12.2032 8.60709
1 12.3265 10.8063 1.15098
1 1.52632 0.239565 8.50081
1 12.5076 10.9072 11.3669
1 1.54632 0.524548 4.92563
1 12.3308 1.49896 12.3636
1 11.0566 0.123369 5.50866
96
 Atoms. Timestep: 8000
2 12.4473 6.77988 4.73039
2 4.64472 12.6221 12.4096
2 2.42855 3.60034 3.35367
2 7.97348 -0.141857 11.1707
2 0.680669 6.31396 9.04251
2 8.40659 12.7181 1.79832
2 0.470889 8.37963 7.70132
2 4.93926 0.254992 2.27325
2 11.1255 8.14956 6.40191
2 2.88361 11.7165 10.358
2 5.25987 2.19036 7.25295
2 8.14131 1.36794 0.394018
2 1.77761 7.39233 6.07348
2 8.12357 10.9723 12.949
2 10.152 5.12404 7.38625
2 4.67273 2.06206 0.0371733
2 10.5534 5.74508 5.03898
2 5.91876 11.1951 10.6786
2 1.40185 6.02054 3.28719
2 6.32362 1.6873 11.6148
2 3.24615 3.98202 1.43264
2 6.34456 2.12352 2.12209
2 11.6902 6.83786 8.33199
2 6.02452 11.1711 1.40051
2 11.1635 9.60063 8.85647
2 3.41558 11.0313 2.60747
2 2.83876 2.97952 8.42722
2 8.87103 1.53554 3.13368
2 2.92049 7.90121 9.03728
2 9.06829 10.2868 2.26358
2 10.352 4.64306 9.66272
2 3.50421 2.2243 2.35146
2 0.785609 4.70252 0.876996
2 8.77405 2.61121 11.361
2 10.9863 8.90929 3.24713
2 3.7475 9.81869 11.0262
2 10.0892 3.19502 5.18755
2 3.77114 2.13961 10.76
2 1.51732 8.95642 4.14857
2 8.7295 10.7524 10.1615
2 -0.286035 11.792 0.0270434
2 0.254623 11.4772 8.3001
2 0.74667 2.89993 12.2754
2 10.2013 -0.136194 7.24489
2 0.220804 0.203051 1.63009
2 11.5675 1.32701 8.19821
2 -0.411494 0.370703 12.0195
2 11.909 12.1802 6.42913
2 11.6944 2.41942 3.06025
2 10.3538 12.6711 9.5278
2 0.584447 10.5873 2.72322
2 2.29325 0.429403 9.38062
2 1.07868 1.71651 3.4932
2 2.85231 10.2226 8.60593
2 11.3774 11.2956 2.12997
2 9.76977 2.39611 9.28185
2 0.185932 12.0065 10.6162
2 2.96299 2.00597 5.3065
2 11.2581 2.49427 11.3709
2 10.2909 10.9054 4.92647
2 11.0327 11.0347 10.952
2 10.848 0.733556 4.95999
2 0.889641 2.05349 10.1838
2 1.07065 10.8539 5.34739
1 11.5759 8.58984 7.7958
1 4.75461 11.7756 1.9164
1 3.5332 2.43037 6.84512
1 7.80675 1.40762 2.055
1 1.74552 7.05335 7.76376
1 7.8189 11.0514 1.01372
1 11.1847 5.46218 8.56524
1 4.80824 1.79826 1.61291
1 1.7823 4.61306 2.25033
1 7.73833 1.31133 12.1824
1 10.9202 7.83315 4.89512
1 4.32955 11.2983 11.3337
1 9.80825 4.50188 5.937
1 4.87928 1.51365 12.1296
1 1.05649 7.03051 4.55976
1 7.51621 11.1993 11.1032
1 10.3487 10.5375 3.14816
1 3.87584 9.21433 9.4449
1 2.77327 2.09148 3.72527
1 10.1664 3.44548 10.792
1 2.1475 10.4677 3.8552
1 10.1843 10.8947 9.67905
1 10.1651 2.01292 4.05253
1 2.49747 1.97351 9.77501
1 -0.038057 1.58595 2.43786
1 9.99939 0.96178 8.55356
1 12.7849 11.5087 1.67817
1 1.57752 11.7086 9.32117
1 11.9887 11.7792 12.1023
1 0.225468 11.0857 6.74819
1 -0.246737 1.93878 11.2705
1 10.5701 12.2828 5.72715
96
 Atoms. Timestep: 10000
2 10.5193 8.62892 7.26125
2 4.70568 12.2784 12.2301
2 0.507163 5.06089 1.71095
2 7.57261 12.2552 11.785
2 1.55056 5.29512 7.3404
2 8.47004 12.7907 1.78036
2 11.1338 9.59013 8.88411
2 4.82909 0.550045 2.89474
2 10.5309 6.99281 5.14322
2 4.24783 11.0464 9.57995
2 0.102091 3.34567 8.10336
2 7.80907 1.48702 0.595627
2 1.84322 8.17115 7.04021
2 7.83945 9.95416 -0.00744392
2 12.5339 4.33258 6.41036
2 4.57642 1.96301 0.348336
2 1.67662 4.47215 4.51801
2 6.54552 10.197 11.6645
2 0.0229207 8.90758 4.31573
2 6.53737 1.60321 11.8057
2 1.6494 8.38165 2.07949
2 6.60058 2.11614 2.40352
2 10.7318 5.66484 7.58731
2 6.25821 11.2855 1.99088
2 8.65032 7.25441 6.73111
2 3.61215 10.9102 2.93622
2 2.34739 2.83539 8.94626
2 9.37234 2.69871 2.64246
2 2.02691 6.83188 9.54616
2 9.37425 10.685 1.502
2 10.0587 3.35827 8.8712
2 4.15682 3.02549 3.25596
2 11.9261 7.67971 2.18859
2 9.3738 1.91337 11.8839
2 10.6383 9.21411 3.12372
2 3.84507 9.18633 10.9776
2 12.2363 3.80955 4.00656
2 4.18806 1.76129 10.9796
2 2.49712 8.76739 4.49164
2 9.49811 9.88353 11.1145
2 0.127028 10.8368 12.787
2 3.61526 11.4983 7.65737
2 0.512236 2.87671 0.339977
2 9.29897 -0.279943 6.61691
2 0.182017 0.455547 2.0063
2 9.62312 11.6151 9.29604
2 -0.0369137 0.49926 11.3017
2 11.2185 11.5779 6.49266
2 11.8631 2.21705 2.47048
2 7.29194 12.6093 7.95659
2 2.17532 10.3666 1.37872
2 2.62021 0.493136 10.2051
2 2.06029 2.61884 2.65632
2 2.45362 10.0895 9.25524
2 11.9373 11.5766 1.58182
2 8.71935 0.800619 9.51542
2 1.4802 11.5358 10.3462
2 2.6558 2.95444 6.18282
2 11.3705 2.77896 11.3787
2 10.4401 12.3854 3.7361
2 11.7085 11.3932 10.5238
2 10.4698 1.69478 4.66204
2 1.40339 1.89407 11.5159
2 -0.266252 8.97008 6.34704
1 10.2398 7.00132 6.68268
1 4.77683 11.8319 2.61925
1 1.92971 3.64827 7.49725
1 8.063 1.52467 2.21759
1 2.07985 6.70311 7.84246
1 7.71951 11.0577 1.30876
1 11.4773 4.25078 8.0667
1 4.84218 1.85191 2.20083
1 0.518578 6.93629 1.75998
1 7.99659 1.0488 12.3387
1 11.3021 8.1462 3.80568
1 5.14693 10.8054 10.9658
1 13.1842 5.12081 4.87502
1 4.97565 1.42796 12.3253
1 1.1913 8.67619 5.65178
1 8.09584 10.6316 11.9793
1 10.7426 10.989 2.61371
1 2.36964 8.65718 10.3511
1 2.85054 3.00067 4.35583
1 10.1429 2.08451 10.2216
1 2.77445 9.40768 2.89931
1 10.4122 10.47 9.96718
1 10.8997 3.06816 3.49275
1 2.60401 2.1424 10.5275
1 0.513451 1.99526 1.81549
1 8.83337 12.3856 8.05502
1 0.765357 11.4327 1.2316
1 2.65267 11.6027 9.18848
1 0.389259 11.667 11.408
1 11.2835 10.0838 7.30309
1 12.7707 2.22114 12.1631
1 10.4955 0.0405307 5.43248
96
 Atoms. Timestep: 12000
2 12.0801 7.64567 7.12881
2 5.02004 0.634091 11.0039
2 1.24442 5.18045 1.72375
2 9.01209 1.56404 12.2709
2 3.74534 6.572 8.44274
2 7.73704 0.260501 2.05214
2 9.71602 8.80225 9.69129
2 3.75589 0.78656 2.28644
2 11.1862 5.22879 4.33181
2 4.50946 11.0082 10.8199
2 2.08996 4.25122 8.41463
2 7.30667 3.20658 13.4454
2 3.27344 7.05934 5.73347
2 7.89535 11.6241 0.378229
2 12.3805 3.49196 6.13298
2 4.55643 2.42436 13.3378
2 0.468593 3.4211 3.96503
2 7.18637 12.3438 11.2537
2 0.631693 6.83061 4.58041
2 6.84852 2.2299 11.4614
2 2.11763 7.45004 0.600111
2 5.98708 2.32761 2.31736
2 11.3915 5.29654 8.23037
2 6.01223 10.997 2.23217
2 10.0729 7.45061 9.19849
2 3.54779 10.2685 1.24365
2 2.19079 5.30176 10.6819
2 8.5481 2.43693 2.8115
2 6.2493 6.90446 6.55899
2 8.51963 9.92769 2.36446
2 11.1706 2.97124 8.22859
2 3.12174 3.33923 2.43416
2 11.8008 6.9943 1.99157
2 8.99567 3.45075 10.5305
2 10.5689 8.12007 4.88907
2 1.02064 2.35731 7.92604
2 10.7753 2.38287 4.65509
2 3.90514 3.42241 11.2228
2 3.11374 7.94481 2.83331
2 9.69954 10.9376 11.9249
2 0.902619 10.091 0.0236986
2 0.984517 0.680857 9.94842
2 12.1739 0.948103 0.0715783
2 9.24892 11.7572 7.31262
2 12.6274 11.8746 2.3249
2 10.0759 11.0548 9.61713
2 0.404542 12.096 11.7969
2 11.1598 10.3054 5.8336
2 10.6398 1.457 2.52783
2 7.61006 11.636 9.16301
2 1.30637 9.51971 2.27212
2 4.69187 12.2446 13.2335
2 0.719571 2.07193 2.1049
2 2.93172 12.3028 8.77824
2 10.9018 10.1465 2.80126
2 9.86636 1.29592 9.03262
2 1.90792 9.89206 10.4047
2 0.26504 6.53603 9.15761
2 11.3038 2.3667 10.7727
2 9.07448 10.4464 4.73086
2 12.0426 9.51907 11.2895
2 9.50889 0.0348218 4.65916
2 0.777672 2.83301 11.7368
2 0.87783 8.93967 5.03623
1 11.4176 6.98641 8.62456
1 4.33532 11.8237 1.53768
1 1.96888 5.88667 9.24824
1 7.31016 2.14968 1.59369
1 4.48508 6.974 7.01504
1 7.55987 11.15 1.88126
1 0.306144 3.90299 7.87468
1 4.39426 2.37048 1.74313
1 0.623168 6.66814 1.1897
1 8.18437 2.93087 11.9796
1 11.5353 6.65584 3.74228
1 5.66873 11.76 11.6582
1 11.6086 3.62975 4.7237
1 5.18071 2.53808 11.4418
1 2.1524 7.85318 4.57932
1 8.82882 12.3431 12.3056
1 9.53069 9.25067 3.53587
1 1.98366 0.859369 8.78428
1 1.42497 3.4735 2.52729
1 10.3208 2.84862 9.52797
1 2.85976 8.76359 1.50684
1 10.4937 10.033 10.7509
1 9.80708 1.41529 3.78238
1 2.38703 3.71858 11.4283
1 12.0862 0.870041 1.93649
1 9.07593 12.1533 8.84569
1 12.2881 10.3604 1.62832
1 3.10041 11.1138 10.0246
1 0.867426 10.6499 11.6886
1 11.8844 8.84695 5.72666
1 0.112089 1.29725 11.4643
1 9.89596 11.532 5.63156
96
 Atoms. Timestep: 14000
2 1.35074 9.87779 7.6033
2 5.05503 12.2321 11.9465
2 2.14393 4.92754 2.01585
2 8.54639 0.665303 12.282
2 2.99814 5.11295 7.03194
2 8.06539 12.4011 2.05689
2 9.30057 8.86243 11.3703
2 3.79392 0.239633 2.02078
2 10.9583 5.13219 3.05768
2 3.83726 9.86831 11.8491
2 0.845222 4.96515 8.47168
2 7.65037 2.38736 0.561828
2 1.76729 6.66034 4.86138
2 8.40614 11.0299 0.627963
2 11.7148 4.73103 6.24476
2 4.47046 1.15093 13.237
2 0.421399 4.33539 4.11254
2 6.91207 11.3406 12.2289
2 11.9088 6.84336 3.64436
2 6.33485 1.34632 11.5575
2 2.23709 7.30099 2.40897
2 6.00277 0.910828 1.75607
2 12.567 8.02367 6.305
2 5.81868 11.2331 2.48081
2 12.3936 7.5373 9.33139
2 2.89337 10.6629 2.87733
2 2.84637 4.83766 9.8046
2 9.22896 1.68699 2.84687
2 2.817 3.88409 4.19112
2 8.2594 9.4998 2.04916
2 10.9252 4.37344 9.41431
2 2.72419 2.34847 1.95597
2 0.200428 6.66637 1.27981
2 8.77256 3.2467 11.6638
2 10.1786 7.5705 2.43232
2 0.0699281 2.92514 8.30898
2 11.3732 2.37571 3.80038
2 3.84772 2.31573 10.5317
2 2.82486 9.56658 4.62998
2 9.91549 10.9844 12.2587
2 12.5535 10.8178 13.3195
2 0.0495453 1.53572 9.87305
2 12.6551 1.6674 13.1897
2 10.0803 12.2401 6.88786
2 0.202823 12.294 2.01337
2 9.98695 11.3044 9.67075
2 12.2597 -0.085439 11.1961
2 12.489 11.7549 5.69355
2 11.4972 1.38025 1.98966
2 9.41559 1.24097 8.94133
2 0.709149 9.91389 2.28708
2 5.01823 11.1009 0.663335
2 0.438324 2.57783 2.6469
2 2.44726 11.4194 9.43989
2 10.4935 10.0891 1.91922
2 9.91266 2.49522 9.18578
2 1.42873 10.3382 11.519
2 1.7551 7.13084 8.06484
2 11.0276 2.60185 11.4789
2 10.175 10.2016 4.33672
2 11.8072 9.8557 10.9402
2 11.0517 12.4527 4.31231
2 0.992749 2.92258 11.5524
2 1.43838 0.270705 7.95675
1 0.587698 8.07751 7.69985
1 3.96135 11.4297 2.13598
1 2.36828 5.80837 8.63898
1 7.908 1.35638 1.8267
1 2.5931 5.294 5.37645
1 7.45726 10.7764 1.92379
1 12.1102 4.39221 7.90529
1 4.38443 1.60684 1.31755
1 1.65141 6.21977 1.20053
1 7.79603 2.13035 12.2805
1 11.5279 6.40229 1.99075
1 5.26086 10.6916 12.618
1 11.5837 4.05169 4.4109
1 4.89454 1.04977 11.522
1 0.150417 7.28963 4.92783
1 8.71129 11.9716 12.8198
1 9.79806 8.90313 3.17231
1 1.38995 1.77612 8.79284
1 1.88664 3.50256 2.96917
1 9.9699 3.45242 10.4267
1 2.0437 9.16791 2.92331
1 10.1431 10.193 10.9267
1 10.6949 1.06854 3.38289
1 2.34968 3.29087 10.4894
1 0.284363 1.27715 1.48867
1 10.0177 12.5981 8.41936
1 12.243 10.7276 1.70224
1 2.68371 10.1253 10.5733
1 12.7355 11.0798 11.5476
1 0.904964 11.3024 7.31129
1 12.5142 1.84461 11.7121
1 10.7165 11.4664 5.36577
96
 Atoms. Timestep: 16000
2 0.406402 9.71001 7.21599
2 4.96926 1.18539 11.7399
2 2.36263 5.41322 3.29871
2 8.06719 0.227237 11.8453
2 1.4823 5.50871 8.31589
2 7.99671 12.3633 2.38169
2 8.78767 9.75349 9.10488
2 3.82029 12.3241 2.5933
2 10.9139 5.20228 5.23878
2 3.33927 11.4345 10.4514
2 11.8925 4.61303 9.44238
2 7.76522 0.930488 0.707764
2 3.61104 6.78866 6.46335
2 7.92825 11.2045 0.133804
2 11.5958 3.51236 6.64215
2 3.8808 2.25746 1.43675
2 0.42623 4.19546 4.26923
2 5.80587 11.8811 11.1551
2 2.84411 7.98992 4.31881
2 6.5645 2.59163 12.6894
2 1.65796 8.09266 2.0524
2 5.9163 1.43791 3.05376
2 2.09299 8.17817 6.97063
2 6.14416 10.5526 2.12541
2 11.8887 7.15608 6.38771
2 3.41069 9.84034 1.74171
2 1.44584 5.47789 11.171
2 8.95101 1.55359 2.77446
2 1.70913 4.80189 5.77055
2 8.64837 9.8989 2.59033
2 10.22 2.71215 8.43835
2 2.95536 2.58485 4.03193
2 -0.10566 6.89494 3.38042
2 8.84952 2.13816 11.1345
2 10.2935 7.75499 4.1924
2 0.409136 2.16289 8.24221
2 10.8793 2.76478 4.4811
2 3.52601 3.46673 12.2306
2 3.58647 9.24608 7.91946
2 8.42149 11.3028 10.5557
2 11.9467 9.97792 12.4233
2 1.3633 0.947507 9.78629
2 0.858934 1.11777 12.9285
2 11.4064 12.1552 6.33828
2 12.1935 12.1966 0.998029
2 10.6037 10.3036 7.99838
2 0.144969 12.0469 11.0028
2 0.385279 12.2685 3.90551
2 11.5892 2.15181 1.74284
2 12.4534 12.1277 8.47799
2 0.238119 9.91659 1.11966
2 4.2654 11.4524 -0.0143816
2 1.97217 0.877633 2.30229
2 1.74348 11.4785 8.51654
2 10.9417 9.49202 1.81951
2 9.49743 12.6678 8.95826
2 1.0755 10.166 9.89538
2 0.553901 7.3183 9.1829
2 11.6876 0.869426 9.84021
2 10.4109 10.6876 3.41536
2 10.6614 10.1751 10.3127
2 11.0853 0.793222 3.8833
2 0.377026 2.73583 11.699
2 2.41178 0.717992 6.47626
1 0.201494 8.1033 7.23887
1 4.65004 11.0134 1.6013
1 0.572875 5.70075 9.74529
1 7.41531 1.19329 2.36936
1 2.75641 5.36421 6.92337
1 7.75854 10.8761 2.01465
1 11.9131 3.19033 8.25839
1 3.95063 1.46558 2.97367
1 1.67764 7.09545 3.44307
1 7.72954 1.61444 12.5334
1 11.4006 6.79398 4.8362
1 4.36922 12.2865 11.6744
1 11.6259 3.91231 5.0624
1 4.6704 2.61822 12.9852
1 3.51813 8.19594 6.17266
1 7.22021 11.2088 11.644
1 10.076 9.12908 2.99808
1 0.989248 0.780092 7.86239
1 2.07174 3.98745 4.03811
1 9.94003 1.59508 9.66134
1 1.83962 9.68382 1.84684
1 9.58574 11.0246 9.34585
1 10.4411 2.05661 2.9021
1 1.84812 3.8731 12.0327
1 0.234568 1.061 1.27788
1 11.9737 10.9587 7.54949
1 11.2925 10.7519 0.713323
1 2.74168 10.242 9.11464
1 12.2481 10.47 10.9091
1 2.02997 12.4889 4.85892
1 0.264395 1.1438 11.3339
1 11.2715 11.9945 4.61005
96
 Atoms. Timestep: 18000
2 11.7315 9.20666 7.26122
2 3.50077 1.03689 11.7682
2 2.62935 5.49612 4.26317
2 7.45448 12.1543 10.6467
2 2.05272 5.62305 8.73219
2 8.29708 12.3686 2.50312
2 10.1566 9.44221 7.9833
2 4.78004 0.740016 2.48606
2 11.5037 4.87953 4.1218
2 3.49165 10.9183 10.0242
2 12.1337 4.71869 8.24973
2 7.18481 1.4034 12.3133
2 3.80669 5.64943 7.23188
2 7.74614 11.1906 12.7585
2 11.1704 2.94137 6.00746
2 3.82554 2.56909 0.602367
2 0.839999 3.01754 4.02858
2 5.37182 10.7795 11.2514
2 3.14751 7.29456 5.39637
2 5.48866 1.65286 10.3034
2 3.32678 8.18421 3.20574
2 5.51857 3.20612 1.48969
2 1.72858 7.32033 7.5659
2 6.63491 11.0698 1.94187
2 11.907 6.83798 6.08101
2 4.37431 10.7834 2.4918
2 0.303897 5.88426 11.015
2 8.14211 2.10144 2.53474
2 2.34248 4.13372 6.13543
2 9.06605 9.76775 2.25911
2 10.4275 2.21916 7.71537
2 3.35813 3.5436 3.23478
2 0.614249 7.3847 3.7635
2 8.28524 2.27509 9.84352
2 10.565 7.6054 3.79052
2 0.765602 2.56052 7.62216
2 10.0747 2.53592 4.0775
2 1.79266 4.18699 12.3996
2 3.498 8.41815 8.67409
2 8.48145 10.1573 10.3123
2 12.36 9.91896 -0.0127516
2 0.552589 1.944 9.72126
2 11.123 0.825881 12.4741
2 12.3983 11.4242 6.11641
2 12.6413 11.57 1.6113
2 11.3836 11.0556 8.66074
2 12.3648 -0.0771168 11.2262
2 3.82707 3.52113 8.22337
2 10.362 1.32782 1.91004
2 1.55277 10.2765 7.99456
2 2.12675 10.0365 1.93688
2 4.28675 11.7743 13.0318
2 0.749199 1.84003 12.3045
2 1.0954 -0.15198 7.50232
2 11.8125 9.18718 2.63173
2 9.38248 -0.0754067 9.16579
2 1.21872 10.2185 10.355
2 12.5196 7.0785 8.89687
2 10.5546 1.6961 10.4717
2 10.8106 10.2609 4.22841
2 10.9329 10.8574 10.8234
2 10.2537 12.421 3.64919
2 11.7626 3.22704 11.3485
2 3.1329 1.44267 8.42362
1 12.3487 7.6756 7.46769
1 5.04729 11.8296 1.3258
1 0.693506 5.71486 9.44447
1 7.06973 2.28073 0.896607
1 2.70101 4.36611 7.72553
1 8.02304 10.9665 1.48212
1 11.819 3.20633 7.69587
1 4.25542 2.49719 2.18041
1 2.3186 7.1951 4.01095
1 6.94995 1.41219 10.5688
1 11.688 6.61273 4.21571
1 4.04753 11.7264 11.3412
1 11.6463 3.2236 4.11865
1 2.57312 2.34969 12.534
1 3.37941 7.38718 7.22769
1 7.05291 10.7813 11.4027
1 10.2084 9.20901 3.3156
1 1.41916 1.09739 8.47806
1 2.03356 3.85004 4.45401
1 9.55152 1.65555 9.08016
1 3.15534 9.90395 3.02758
1 9.92643 10.816 9.44362
1 9.29504 1.10633 3.16909
1 0.112893 4.71811 12.3686
1 11.2804 0.290898 0.883878
1 0.147343 11.0185 7.6908
1 0.415039 9.96175 1.89174
1 2.56375 9.82121 9.21367
1 0.128854 10.8916 11.4871
1 4.28026 1.79757 9.09843
1 12.0034 1.71718 11.1243
1 11.44 11.8113 4.61575
96
 Atoms. Timestep: 20000
2 12.5115 9.94478 7.32338
2 4.27796 0.547099 12.0506
2 2.96227 5.56038 4.14159
2 7.79251 12.3508 11.0949
2 0.855809 5.17635 7.3872
2 8.62536 10.7828 2.82093
2 10.6565 9.49355 8.4393
2 4.46322 0.196626 3.02837
2 11.73 4.9094 5.18964
2 3.07653 11.1669 10.9692
2 11.3201 4.24396 7.8833
2 6.74659 1.95372 12.3856
2 2.45459 6.31247 7.82652
2 8.66842 9.97038 12.41
2 11.4285 2.87295 5.6693
2 2.90702 1.39608 1.16077
2 0.866097 3.83351 4.13832
2 6.09079 11.1205 11.1733
2 2.6976 8.06838 5.91941
2 6.11495 1.45926 9.61102
2 3.00551 8.37623 3.5127
2 4.94833 2.57585 1.72317
2 1.08723 8.36811 7.14255
2 6.74376 10.3898 2.21237
2 11.8651 7.46227 6.62228
2 4.07068 10.6649 3.19781
2 0.442081 4.26061 9.82165
2 7.73685 1.64685 1.84474
2 2.90746 3.9159 5.89894
2 9.37339 8.7202 1.59357
2 9.91471 2.65995 8.24721
2 3.38331 2.87339 3.58221
2 0.498534 7.15989 4.73239
2 8.52847 2.02046 10.6911
2 10.6135 7.76418 4.15145
2 0.116554 1.9562 7.38954
2 10.1438 3.09482 3.20193
2 2.39341 3.18185 11.8091
2 2.57055 8.81181 9.17145
2 8.18765 10.4209 9.59835
2 12.4956 9.98637 12.8777
2 1.45433 2.47927 9.772
2 11.8751 1.79875 12.8443
2 11.5644 12.2633 5.91356
2 0.215372 11.8526 1.38419
2 10.6269 11.5579 7.9085
2 12.4353 12.1679 11.4504
2 2.87773 4.01698 8.84195
2 10.3716 1.34109 1.43786
2 1.77662 11.0643 8.10435
2 1.79409 10.6059 1.90851
2 5.06665 11.3682 0.589556
2 1.77858 1.34216 11.4193
2 0.95166 12.1444 7.98789
2 12.2006 9.24625 2.15843
2 9.52528 0.091352 9.57023
2 0.74754 9.70361 10.2278
2 11.9595 7.13355 8.97153
2 11.2491 1.42098 10.3824
2 10.5507 10.3939 3.02566
2 10.74 10.4126 10.1938
2 9.68268 1.12997 3.65292
2 2.84852 5.48043 11.3035
2 3.36985 0.971493 8.69197
1 11.8026 8.3594 7.99052
1 5.21619 11.1931 2.36324
1 12.2227 5.40795 8.65647
1 6.20534 1.76964 0.768702
1 2.50527 4.72843 7.36053
1 8.25364 10.102 1.12811
1 11.5235 2.96861 7.17587
1 3.71153 1.61224 2.80689
1 2.34827 7.36401 4.44295
1 7.21305 1.32715 10.9782
1 11.395 6.83538 5.2603
1 4.76197 11.7101 11.7722
1 11.675 3.48505 4.36814
1 2.89493 1.56188 12.7
1 2.48015 7.94135 7.78664
1 7.49182 10.4653 11.2599
1 10.7468 8.85455 2.83874
1 1.47735 1.25819 8.56136
1 2.56822 4.08782 4.22341
1 9.88902 1.87776 9.93703
1 2.60738 10.1925 3.18688
1 9.61839 10.9585 9.03448
1 9.31112 1.73504 2.36289
1 2.12563 4.15665 10.452
1 11.8503 0.861499 1.00963
1 12.1911 11.5861 7.25109
1 0.378782 10.2447 1.18871
1 2.21892 10.1934 9.7386
1 11.9998 10.6486 11.1601
1 4.52084 1.72241 9.4295
1 0.0956394 1.3989 11.3004
1 10.6659 12.092 4.27767
96
 Atoms. Timestep: 22000
2 12.5799 10.2887 7.12035
2 3.15776 1.00892 10.9541
2 3.03322 5.23048 3.81035
2 7.63253 -0.183915 11.5806
2 1.21225 4.83521 8.21293
2 7.894 -0.219288 2.73782
2 11.0889 9.50231 8.8419
2 4.15249 12.3818 1.65464
2 10.8062 5.41309 4.39072
2 4.0367 9.67444 10.6308
2 11.8445 4.88698 8.83292
2 6.24028 2.38618 12.5589
2 3.40692 6.57071 7.34577
2 8.64983 11.4126 0.389684
2 11.0605 4.16898 6.0198
2 2.90831 1.39571 0.956843
2 0.53507 3.45115 3.5015
2 6.77644 10.3538 11.8945
2 2.50183 7.98638 5.41228
2 5.60031 0.577375 10.0074
2 2.55132 7.60101 2.82087
2 4.98081 1.75065 2.21303
2 1.15791 8.24827 7.60228
2 6.35448 10.5588 1.5394
2 11.8971 7.00467 6.56854
2 3.73271 10.0072 1.90232
2 1.28481 4.71792 10.3701
2 7.64464 2.35661 2.1049
2 2.55034 3.93413 5.67862
2 9.23987 10.0086 2.47112
2 10.1685 2.78476 8.75627
2 2.41455 2.30464 3.12549
2 0.51112 6.49569 4.08756
2 8.07298 2.45388 10.8594
2 10.479 8.00517 4.28173
2 0.16189 3.00307 7.87061
2 10.161 2.71372 3.68513
2 2.71959 2.89441 11.9725
2 2.89507 9.57735 7.99933
2 8.66493 10.9831 10.4485
2 12.03 9.61129 12.3112
2 1.6986 2.65178 10.1078
2 12.0704 1.03824 13.0709
2 11.9072 0.225863 6.10058
2 12.324 11.4035 1.27903
2 11.0434 11.6213 8.19548
2 0.370287 12.411 10.8821
2 2.93804 3.76806 8.75607
2 9.84691 0.61406 1.79531
2 3.74916 11.4918 9.04613
2 0.790339 9.16099 1.35331
2 4.44989 10.5601 12.7465
2 1.46839 1.10889 12.117
2 0.696122 0.178894 8.2756
2 11.3718 9.26458 2.07976
2 9.81769 -0.013091 9.99563
2 1.07389 10.3166 9.91902
2 11.9904 6.99341 8.86016
2 11.115 1.60442 10.8178
2 11.3497 10.8196 4.28935
2 11.086 10.6468 10.5306
2 9.73665 0.782384 4.09845
2 3.49649 5.32159 10.2516
2 2.91204 1.33363 8.83067
1 12.1258 8.47016 7.64541
1 4.74974 10.9143 1.09268
1 0.468052 5.70086 9.32779
1 6.23506 2.228 1.14195
1 2.79967 4.71928 7.22301
1 8.01859 10.9768 1.80106
1 11.2647 3.95061 7.68217
1 3.39083 1.16012 2.46616
1 2.3637 6.76981 4.14637
1 6.74267 1.45012 11.1991
1 11.5305 6.91796 4.9129
1 5.43763 10.5805 11.3696
1 11.4003 3.83869 4.20008
1 2.99603 1.53358 12.4801
1 2.57837 8.02874 7.10577
1 8.45456 11.0596 12.1692
1 10.5814 9.64101 3.36343
1 0.920745 1.79908 8.73845
1 2.4167 3.79118 4.09333
1 9.54909 1.78416 10.005
1 2.36189 8.81085 1.75175
1 10.0131 10.9811 9.20171
1 8.84449 1.51902 2.88641
1 2.68713 4.04136 10.2925
1 11.5424 0.574096 1.25877
1 -0.170928 11.7525 7.23
1 12.0444 9.92908 0.784984
1 2.95718 10.1266 9.44691
1 -0.0953382 10.6195 11.0596
1 3.93648 0.28079 9.59982
1 -0.143051 1.29825 11.6022