96
 Atoms. Timestep: 0
2 0 7.95642 4.74695
2 4.63304 0 11.358
2 0 4.63304 4.74695
2 7.95642 0 11.358
2 0 4.63304 8.47514
2 7.95642 0 1.8641
2 0 7.95642 8.47514
2 4.63304 0 1.8641
2 10.7421 8.43088 6.61105
2 4.15858 10.7421 0
2 1.84736 4.15858 6.61105
2 8.43088 1.84736 0
2 1.84736 8.43088 6.61105
2 8.43088 10.7421 0
2 10.7421 4.15858 6.61105
2 4.15858 1.84736 0
2 10.5201 6.29473 5.04003
2 6.29473 10.5201 11.6511
2 2.06934 6.29473 5.04003
2 6.29473 2.06934 11.6511
2 2.06934 6.29473 8.18207
2 6.29473 2.06934 1.57102
2 10.5201 6.29473 8.18207
2 6.29473 10.5201 1.57102
2 10.1594 8.65935 9.20274
2 3.93011 10.1594 2.59169
2 2.43004 3.93011 9.20274
2 8.65935 2.43004 2.59169
2 2.43004 8.65935 9.20274
2 8.65935 10.1594 2.59169
2 10.1594 3.93011 9.20274
2 3.93011 2.43004 2.59169
2 2.43004 3.93011 4.01936
2 8.65935 2.43004 10.6304
2 10.1594 8.65935 4.01936
2 3.93011 10.1594 10.6304
2 10.1594 3.93011 4.01936
2 3.93011 2.43004 10.6304
2 2.43004 8.65935 4.01936
2 8.65935 10.1594 10.6304
2 0 10.703 0
2 1.88643 0 6.61105
2 0 1.88643 0
2 10.703 0 6.61105
2 0 0 1.872
2 0 0 8.48305
2 0 0 11.3501
2 0 0 4.73905
2 11.2706 2.31295 2.18973
2 10.2765 11.2706 8.80078
2 1.31887 10.2765 2.18973
2 2.31295 1.31887 8.80078
2 1.31887 2.31295 2.18973
2 2.31295 11.2706 8.80078
2 11.2706 10.2765 2.18973
2 10.2765 1.31887 8.80078
2 1.31887 10.2765 11.0324
2 2.31295 1.31887 4.42131
2 11.2706 2.31295 11.0324
2 10.2765 11.2706 4.42131
2 11.2706 10.2765 11.0324
2 10.2765 1.31887 4.42131
2 1.31887 2.31295 11.0324
2 2.31295 11.2706 4.42131
1 11.0086 7.83654 8.10972
1 4.75292 11.0086 1.49867
1 1.5809 4.75292 8.10972
1 7.83654 1.5809 1.49867
1 1.5809 7.83654 8.10972
1 7.83654 11.0086 1.49867
1 11.0086 4.75292 8.10972
1 4.75292 1.5809 1.49867
1 1.5809 4.75292 5.11238
1 7.83654 1.5809 11.7234
1 11.0086 7.83654 5.11238
1 4.75292 11.0086 11.7234
1 11.0086 4.75292 5.11238
1 4.75292 1.5809 11.7234
1 1.5809 7.83654 5.11238
1 7.83654 11.0086 11.7234
1 10.1088 10.1088 3.30552
1 2.48067 10.1088 9.91657
1 2.48067 2.48067 3.30552
1 10.1088 2.48067 9.91657
1 2.48067 10.1088 3.30552
1 10.1088 10.1088 9.91657
1 10.1088 2.48067 3.30552
1 2.48067 2.48067 9.91657
1 0 1.60471 1.57853
1 10.9848 0 8.18958
1 0 10.9848 1.57853
1 1.60471 0 8.18958
1 0 10.9848 11.6436
1 1.60471 0 5.03252
1 0 1.60471 11.6436
1 10.9848 0 5.03252
96
 Atoms. Timestep: 2000
2 12.696 7.91078 4.28925
2 4.73882 0.535584 11.3555
2 12.0765 4.52282 4.74099
2 8.23526 -0.338022 11.5464
2 12.4796 4.58855 8.80815
2 8.20581 12.3504 1.66921
2 0.444045 7.83611 8.61054
2 4.43774 12.5352 2.27595
2 11.7773 7.8514 11.5971
2 4.06213 11.676 13.0897
2 1.12992 4.83568 6.17365
2 7.3797 0.797243 0.473657
2 1.93447 7.96941 5.77587
2 7.85671 10.205 13.0886
2 10.9512 4.54506 7.22846
2 4.66 1.86837 0.465403
2 10.706 6.32449 5.01441
2 6.04576 11.6665 11.4893
2 0.886964 6.40398 3.90163
2 6.26142 1.8289 12.4143
2 1.72416 6.05267 8.2133
2 5.96789 1.64866 2.47938
2 11.1345 6.69816 9.72012
2 6.02102 10.6169 1.60627
2 11.6921 8.99289 9.69488
2 2.43024 11.1268 2.02295
2 1.65042 3.46686 8.63302
2 9.03642 1.2468 1.98509
2 2.7237 8.68741 8.86528
2 8.69525 9.32143 1.46236
2 10.4366 4.40333 9.74394
2 3.71877 2.12169 3.52966
2 1.05389 3.73499 4.4319
2 9.28789 2.19394 11.5721
2 10.8946 8.11471 2.17544
2 3.87032 10.4124 11.1007
2 11.9958 1.75627 1.93653
2 3.50319 2.60398 11.2593
2 1.70868 9.27106 3.56425
2 9.64283 11.2756 10.9723
2 0.0148601 10.9031 13.1066
2 1.33578 0.259706 6.54191
2 0.699769 1.79234 -0.313678
2 10.8998 0.686088 6.16914
2 13.3932 12.7272 1.14947
2 -0.277138 0.480599 8.40674
2 -0.0621153 0.0304478 11.7027
2 -0.21586 12.7897 4.86682
2 10.2136 12.3088 3.3651
2 10.6246 12.5582 8.36326
2 0.186977 10.4075 1.60611
2 1.96457 1.05374 9.4552
2 1.19167 2.17053 2.56545
2 2.11273 11.5634 9.18299
2 11.2352 10.6683 1.14297
2 10.5177 2.15604 8.72727
2 1.46697 10.2329 11.0733
2 1.68769 1.22544 4.32375
2 11.4954 2.55881 11.5307
2 11.2314 10.0697 3.58203
2 12.4465 11.1673 10.0101
2 10.9133 12.6062 5.39679
2 1.41531 2.39767 11.7015
2 1.89503 11.7981 3.85962
1 12.3633 7.46698 10.2419
1 4.32955 10.9458 1.27102
1 1.01595 4.74646 7.90741
1 7.49963 0.942246 2.26635
1 2.03179 7.71882 7.75588
1 7.60016 10.4073 1.03885
1 10.8222 5.29529 8.69865
1 4.55769 1.42167 2.2437
1 0.469473 5.084 4.68091
1 8.09909 1.13705 12.4206
1 11.2398 7.35439 3.75449
1 4.39533 12.1161 11.4661
1 10.8564 4.81719 5.55678
1 4.59265 1.77841 12.4389
1 1.09853 7.8927 4.41921
1 7.96856 11.1077 11.376
1 10.201 9.68801 1.97215
1 2.6263 10.0633 9.93092
1 2.12443 2.5719 3.8645
1 10.3621 2.90893 10.3657
1 1.00881 10.5472 2.87692
1 10.9401 11.3691 9.934
1 10.7052 0.663318 2.344
1 2.13832 2.61835 9.7921
1 0.306457 1.41271 1.30958
1 11.344 0.95645 7.70911
1 12.646 11.2901 0.675583
1 1.33201 13.1871 8.18974
1 0.495734 11.4508 11.5439
1 1.35208 13.0768 5.04559
1 -0.0744766 2.0938 12.0073
1 11.4191 11.3858 4.52705
96
 Atoms. Timestep: 4000
2 12.2929 7.85537 4.94117
2 4.57362 -0.179474 10.7482
2 9.60156 4.01045 5.01438
2 8.14213 -0.0766756 12.0243
2 12.4792 4.00502 7.76589
2 7.95734 0.120422 1.21527
2 1.0411 7.36681 8.67834
2 5.12811 12.7221 1.49947
2 0.955205 7.97891 10.9338
2 4.36981 11.1633 12.478
2 11.813 4.82685 4.96183
2 8.11388 2.11904 12.6807
2 1.66623 6.90604 5.99578
2 8.28859 10.8687 12.9292
2 10.6667 5.26119 7.46309
2 4.73811 1.96995 13.0068
2 9.58327 6.37468 5.1694
2 6.60217 11.2708 10.3898
2 1.26061 6.53991 3.71126
2 6.16648 1.79161 11.0313
2 2.24577 5.50341 7.55037
2 6.38017 1.45421 1.40442
2 12.2596 6.00446 9.27648
2 6.20065 10.9066 1.1863
2 11.5218 8.36033 10.0854
2 3.78428 11.1796 2.52573
2 2.0136 3.52179 8.8139
2 8.58163 2.69108 2.19387
2 3.11245 8.57328 8.01163
2 9.01529 11.2529 2.41374
2 10.2164 3.1481 9.404
2 3.3021 1.46885 2.00006
2 1.98423 3.74526 4.03079
2 9.31879 1.01617 10.6046
2 9.66858 8.96628 4.0431
2 4.61798 9.86553 10.3921
2 11.0283 2.2809 2.39883
2 3.82051 2.11321 10.47
2 1.30795 9.16571 3.8097
2 9.41296 10.3448 10.8324
2 12.7487 11.8311 0.340653
2 2.11867 13.2256 6.61344
2 12.3541 2.67236 0.183692
2 8.89792 0.737938 7.57806
2 11.8574 0.41509 2.1302
2 0.59856 12.5277 8.13227
2 2.37016 11.5281 12.7056
2 12.6756 0.631326 5.14568
2 10.0568 1.72715 4.2864
2 12.2198 10.2218 11.6903
2 0.775848 10.5682 2.42856
2 2.34695 0.933715 8.90536
2 1.19627 2.85417 2.01142
2 2.33819 10.9463 8.7302
2 11.4273 10.9832 2.90729
2 11.2071 0.362084 8.97733
2 11.5052 10.742 8.00578
2 1.71666 1.31712 4.02592
2 11.7065 2.18337 10.9834
2 10.2561 11.9817 4.64971
2 10.0503 8.52804 12.7991
2 9.95745 0.602631 6.7204
2 0.920784 2.35266 11.4248
2 1.4197 11.6685 4.03382
1 12.5962 7.4036 9.84525
1 4.79368 11.2611 1.05887
1 1.27026 4.28101 7.36474
1 8.18089 1.79767 0.794807
1 2.1207 7.31962 7.4309
1 7.84412 11.233 1.03758
1 11.1636 4.5504 8.93099
1 4.67966 1.44652 1.00549
1 0.827584 4.92152 3.70795
1 8.03538 1.40419 11.2096
1 10.4345 7.7241 4.71561
1 5.17819 11.0717 11.1157
1 10.4141 5.15809 5.84686
1 4.75971 1.33642 11.6083
1 0.900883 7.78046 4.71388
1 7.87775 11.0484 11.4832
1 10.0214 10.7198 3.75416
1 3.03918 9.61187 9.271
1 2.46729 2.39554 3.14584
1 10.5683 1.53698 10.0087
1 2.24907 10.5863 3.08728
1 10.6104 9.62711 11.3741
1 9.89657 2.90933 3.40076
1 2.18207 2.43497 9.82127
1 12.2821 2.10869 1.4995
1 11.9282 12.4464 7.88449
1 12.5056 11.6327 1.91573
1 2.23393 12.6449 7.95463
1 0.524333 11.4259 12.2414
1 1.35989 0.253334 5.10473
1 -0.354069 2.94311 12.1875
1 10.797 0.707292 5.38084
96
 Atoms. Timestep: 6000
2 -0.0349918 8.24663 4.23921
2 5.22653 0.351231 11.5797
2 11.0296 3.03671 3.1529
2 8.4085 11.554 11.5012
2 0.683349 3.94902 7.10114
2 7.61837 11.9846 1.7402
2 0.363482 7.91344 9.35178
2 4.34784 12.4764 0.596367
2 0.578452 5.38742 9.0173
2 4.233 10.8658 12.5342
2 0.438566 4.59626 4.55916
2 8.68395 0.575518 13.2127
2 1.00253 8.545 6.34674
2 7.83597 10.0582 13.3661
2 10.975 3.5671 5.93045
2 4.82023 2.41636 13.0142
2 10.9306 5.76257 4.16905
2 6.14927 10.703 11.0189
2 1.57622 6.96536 4.28805
2 7.67663 1.48682 11.5113
2 1.92103 6.71632 7.68816
2 6.60305 1.34178 0.62569
2 11.5257 4.89992 9.0498
2 6.13083 10.8286 0.531557
2 12.3843 6.75172 11.1139
2 2.99398 11.4546 1.89038
2 2.56416 3.78554 8.41977
2 8.74693 1.58562 1.83687
2 2.08876 9.59094 8.54373
2 8.28376 9.70062 2.84131
2 11.326 2.54234 8.88535
2 3.84117 1.69777 1.72184
2 2.0269 4.54042 2.52863
2 9.37349 0.848867 10.4204
2 10.5219 8.87483 4.88062
2 3.42738 11.2621 10.2759
2 11.5199 1.43895 1.77143
2 5.54702 3.15184 9.79134
2 1.37156 9.82847 3.60923
2 8.22867 9.22359 10.5354
2 12.5413 9.75521 13.1406
2 2.00782 1.04458 6.38172
2 0.366045 1.39411 12.5901
2 11.5407 0.0336701 8.39088
2 12.6796 12.4813 0.189082
2 1.52231 1.07273 9.67243
2 1.05183 9.32916 10.7595
2 0.0621448 12.6848 5.03743
2 10.4552 1.36779 4.11384
2 10.8724 8.70345 11.5226
2 1.1851 10.3139 1.59248
2 3.27396 1.44611 8.24641
2 1.17861 1.83667 1.38625
2 1.37028 11.7408 8.97735
2 11.2295 10.2443 1.02479
2 12.2999 -0.0531336 10.4418
2 0.845436 11.536 11.0514
2 1.48414 1.9946 3.86149
2 8.04485 10.2767 4.98305
2 10.5673 11.2908 4.75856
2 10.7272 7.29789 9.04827
2 11.1301 0.256141 6.8617
2 6.58206 12.728 4.55849
2 2.0049 12.7272 3.47111
1 12.1143 6.43571 9.49471
1 4.4237 10.7122 0.562602
1 1.91291 4.97683 7.59743
1 7.58222 0.453091 1.1715
1 1.07379 8.03028 7.97413
1 7.57425 10.4804 1.34831
1 11.782 4.06657 7.59732
1 4.96465 1.1087 0.650963
1 1.88149 5.21394 4.12286
1 8.88392 0.072576 11.6426
1 11.2078 7.3328 4.6839
1 4.76374 11.5345 11.0153
1 11.5126 4.12614 4.2584
1 5.6752 2.26199 11.3032
1 1.54105 8.53059 4.43607
1 7.43436 10.1826 11.8298
1 9.32812 10.0375 4.19041
1 1.6955 10.5891 10.0843
1 2.45534 2.76727 2.28943
1 10.8599 0.998037 9.51598
1 1.26576 11.4892 2.89522
1 9.61147 8.40915 10.5276
1 10.196 1.8275 2.66762
1 4.16855 3.01367 8.85271
1 12.6927 1.07879 0.64242
1 1.12327 0.382499 11.3078
1 12.6317 11.1066 0.819621
1 1.84272 0.548105 8.09455
1 12.5334 8.46348 11.5694
1 1.4968 0.613813 4.81496
1 6.27072 10.9834 4.68378
1 11.3054 -0.0229787 5.03061
96
 Atoms. Timestep: 8000
2 1.3766 8.11521 3.17482
2 4.24631 1.59059 11.5392
2 11.1549 3.69375 3.90385
2 8.03372 12.5167 10.4778
2 12.3494 4.66998 8.31072
2 7.37625 0.305051 1.37974
2 11.2312 9.5119 4.65855
2 5.48657 0.344681 1.92425
2 1.06627 6.20188 10.4255
2 4.3019 11.4415 13.0865
2 0.776464 4.55225 5.5005
2 8.09276 2.53486 0.0727349
2 3.86043 6.60073 5.87588
2 7.90518 10.7118 11.8288
2 10.963 4.9247 5.92414
2 5.24561 2.67518 0.343399
2 11.969 6.53702 4.17717
2 5.2322 12.0242 10.5374
2 2.6231 4.87375 4.33139
2 6.71956 2.02605 11.0425
2 2.41124 6.57312 8.30032
2 6.26211 2.27141 2.26432
2 9.70021 6.51973 7.87841
2 6.22848 10.8042 0.832162
2 0.105852 7.43305 10.9739
2 4.40899 10.072 2.47067
2 2.027 4.41482 8.28091
2 9.31292 2.15109 2.55524
2 3.1925 8.98355 6.38343
2 8.47598 10.6322 1.6554
2 10.1023 3.99999 8.70439
2 3.28817 1.39861 2.78931
2 2.34397 2.28816 5.08525
2 8.56974 0.223625 12.7022
2 10.4749 8.86786 2.88888
2 2.72705 11.3299 11.4056
2 0.114159 2.08925 3.74073
2 4.40425 3.22585 10.3966
2 3.61472 7.55739 3.3771
2 6.94162 9.63001 10.2045
2 0.931902 8.57107 12.3835
2 2.09548 11.5531 7.08167
2 10.7404 11.6938 8.74047
2 8.58626 2.21078 10.2691
2 11.877 1.03036 2.00849
2 0.555055 0.87619 8.71066
2 -0.0236768 10.5138 11.4836
2 0.352071 10.4699 5.74254
2 10.8748 0.829081 4.14749
2 11.1825 8.95751 10.2041
2 1.97995 9.65226 1.99224
2 3.05314 1.67487 8.2703
2 0.981524 12.5657 2.81303
2 1.90183 12.8341 10.0484
2 0.202871 10.5148 0.926617
2 10.4988 1.633 8.30908
2 0.60752 0.113432 12.9416
2 1.71814 11.9167 4.53016
2 7.84017 10.0035 4.02845
2 10.3772 11.1076 3.48818
2 10.0412 9.30176 7.85529
2 11.7253 -0.213373 6.21643
2 8.11486 8.14598 6.07584
2 2.88468 9.64928 4.51021
1 9.46371 8.03388 6.99873
1 4.84937 11.1286 1.53729
1 1.20091 5.83007 8.7537
1 7.93094 1.9149 1.72527
1 3.06523 7.62344 7.0297
1 7.68236 11.2231 0.440669
1 10.7553 5.34725 7.54947
1 4.78482 1.93064 1.62613
1 2.1917 3.71907 5.57001
1 8.28565 1.35812 11.6059
1 12.1125 8.19624 3.86487
1 4.23915 12.346 11.7215
1 11.8833 4.77229 4.63018
1 5.33035 2.53546 11.744
1 3.9941 6.20829 4.35281
1 6.97783 11.2994 10.4391
1 9.20653 9.98605 3.15029
1 0.94636 12.1367 11.2756
1 1.88244 1.22636 3.82651
1 10.0253 2.6251 9.38457
1 2.92868 9.0308 3.1883
1 10.7801 9.99265 9.01028
1 11.0375 2.24328 3.33607
1 3.22019 3.12642 8.84092
1 -0.0152587 12.1657 1.33906
1 11.537 0.421204 7.74019
1 1.02836 8.89999 0.753407
1 1.90741 0.541389 8.20065
1 -0.0222563 8.90553 11.0473
1 2.12792 10.5498 5.54568
1 7.22857 8.88657 5.09526
1 11.3275 11.6398 4.75704
96
 Atoms. Timestep: 10000
2 2.51619 7.95103 4.77005
2 5.83239 6.67847 1.46795
2 11.9539 3.32688 3.28598
2 7.5894 0.467601 9.89998
2 0.38701 7.80817 9.63329
2 8.88941 0.218922 1.01093
2 11.5472 8.20856 5.22373
2 4.81195 0.868937 1.24705
2 11.3462 5.85357 8.18732
2 4.65593 10.8695 12.6761
2 1.32776 4.2077 5.63367
2 7.89679 2.45603 12.0902
2 4.20837 6.6355 7.48882
2 7.98624 10.5847 11.6603
2 11.3388 4.38112 5.7518
2 4.11227 3.18416 0.280407
2 0.587564 5.97669 3.83342
2 5.94694 10.7526 10.6843
2 3.68615 4.38864 7.14541
2 5.48918 2.65468 10.8517
2 1.64397 7.22582 7.02076
2 6.56456 1.94559 1.61732
2 9.48947 6.21527 5.33241
2 5.83767 10.0233 1.87865
2 11.1404 7.1399 11.2478
2 4.14921 11.0033 3.30645
2 0.725356 4.88636 8.89455
2 9.08407 2.31369 2.06176
2 2.22908 9.24962 7.51846
2 10.1321 9.71222 1.39025
2 9.90789 4.45404 8.05626
2 6.06398 3.76169 2.54199
2 2.63402 2.5402 5.07428
2 11.6845 11.3691 2.62224
2 0.626316 9.12917 3.83452
2 2.32986 10.3431 11.6559
2 12.2393 1.84481 5.46302
2 2.44386 2.87976 10.6745
2 4.92067 8.53407 3.88078
2 8.8028 10.9259 9.45594
2 12.427 9.12801 1.24812
2 3.2126 11.0419 9.81001
2 10.066 11.7794 7.33922
2 8.48267 3.1161 9.87803
2 11.5524 1.59163 1.7474
2 10.4521 1.42878 4.73204
2 0.323431 9.84962 12.1893
2 0.733953 9.92071 6.13907
2 10.5032 0.226588 2.67
2 10.5268 9.5903 11.8645
2 2.59583 9.74248 2.83825
2 2.12097 1.58397 9.07618
2 1.19651 1.21549 3.08143
2 1.53143 12.1697 10.2624
2 1.23076 11.2449 1.47414
2 10.2088 2.01814 7.35557
2 0.838924 0.192254 12.6166
2 1.60359 11.8545 5.34317
2 8.62295 8.23469 3.17085
2 10.7923 9.69267 3.94531
2 10.1829 9.74827 6.63715
2 11.6896 11.6988 5.46434
2 6.77402 7.61165 3.75363
2 3.23118 10.1328 5.58832
1 8.15198 6.98681 4.66455
1 4.68261 11.4927 1.57226
1 0.732895 6.49386 8.43806
1 8.05744 1.60248 0.79312
1 3.27975 7.97813 7.25279
1 9.25636 10.5524 12.9981
1 10.3518 5.35163 6.71926
1 5.16038 2.74164 1.48484
1 3.01085 3.85628 5.60812
1 7.12242 2.27717 10.669
1 0.678979 7.59091 4.33514
1 4.15254 10.6003 10.9805
1 12.251 4.60292 4.33152
1 3.93306 2.86207 11.5631
1 4.98782 5.22932 7.52254
1 7.46916 11.1425 10.356
1 10.045 9.02392 2.70857
1 1.1012 11.1162 11.7032
1 1.60023 1.2226 5.01407
1 9.24633 3.17475 8.32213
1 3.54782 9.42407 4.28909
1 9.01053 10.546 7.83533
1 10.4606 1.98337 2.96144
1 1.86459 3.34262 9.3403
1 0.856346 0.660049 1.26391
1 11.0247 0.782974 6.27803
1 0.807678 10.1202 2.55164
1 2.54497 12.1672 8.68584
1 11.7364 8.66413 11.1052
1 2.16325 10.6679 6.61767
1 5.75419 8.05071 2.47631
1 11.3688 9.74747 5.49809
96
 Atoms. Timestep: 12000
2 2.50392 7.8727 3.2449
2 9.70443 5.91969 1.8805
2 10.1693 3.96476 3.50718
2 6.50233 0.91895 10.9641
2 11.4681 8.37864 8.70862
2 9.05137 11.2292 0.492989
2 11.8857 8.92839 3.43824
2 5.71232 9.60184 1.79363
2 11.6884 5.82627 7.85235
2 4.34964 8.47956 0.411887
2 4.9575 2.59815 7.05169
2 8.30556 2.75734 12.3054
2 4.23467 7.50743 8.03593
2 7.65502 9.97585 12.0888
2 11.4504 4.93493 5.2263
2 4.15521 11.9191 2.09441
2 0.998012 5.74257 3.37292
2 5.27776 10.2308 10.7539
2 3.50354 5.0245 6.66396
2 5.64654 3.91055 10.9198
2 2.07208 7.73987 7.69645
2 6.78835 0.921891 1.20504
2 9.89899 6.96913 5.9894
2 6.74588 7.03369 1.86782
2 8.91126 9.91189 9.32697
2 4.56673 7.70143 2.98476
2 1.55127 6.26714 9.52643
2 9.06707 1.83552 2.78764
2 2.7908 10.1302 7.82183
2 9.72977 8.30061 1.08213
2 9.53184 4.59442 7.62703
2 6.2672 11.042 3.5245
2 2.09237 2.70065 7.04748
2 1.41909 10.6902 3.09947
2 0.604717 6.89865 1.67071
2 3.20036 8.53936 10.2211
2 11.1123 1.72886 5.97637
2 3.45128 6.17907 11.629
2 4.84155 7.38408 5.00214
2 7.31417 10.4456 9.72871
2 12.1276 1.20731 7.82935
2 2.88112 10.1459 12.4682
2 8.18766 11.016 5.74705
2 8.13236 3.11778 9.63692
2 0.673601 3.23186 2.83762
2 9.07513 1.38686 4.97824
2 11.1883 10.8406 9.79897
2 1.25453 10.1659 5.38271
2 9.16732 3.96594 5.7121
2 9.79865 8.69895 10.9126
2 3.73404 9.87712 2.93079
2 1.04151 3.84615 11.6033
2 1.54226 1.84538 4.5864
2 1.61269 0.888577 10.8455
2 1.61023 0.535729 1.80404
2 8.73539 2.19917 7.02989
2 1.91367 1.73618 1.03147
2 2.03577 0.448793 6.63171
2 10.5445 8.65452 5.05261
2 11.6356 11.869 3.65886
2 8.58957 9.11861 3.88004
2 10.2749 11.101 5.23751
2 8.55863 6.40277 4.01257
2 3.15369 9.86159 4.89696
1 8.98452 7.76963 5.00371
1 5.41334 7.90224 1.67865
1 0.635981 7.16831 8.12484
1 8.39801 1.44028 1.07738
1 3.07357 8.84436 8.56639
1 8.98867 9.19573 12.2416
1 10.3237 5.16081 6.44447
1 5.71801 11.5869 2.0135
1 3.74063 3.57253 7.42469
1 7.18848 2.83962 10.9913
1 1.09475 7.30585 3.21756
1 3.92579 9.27458 11.3434
1 11.6911 4.53646 3.63237
1 4.73322 5.39734 11.2691
1 4.20713 6.61873 6.43779
1 6.64514 10.9042 11.2527
1 10.8075 6.89692 1.23927
1 0.733362 12.0243 9.31346
1 0.893957 1.76226 6.35743
1 8.71181 3.27008 8.18658
1 3.74647 8.56398 4.113
1 7.66134 10.3438 4.16861
1 9.06282 2.86845 4.3632
1 1.72418 5.39147 10.9259
1 0.806566 1.48365 3.20968
1 9.54607 0.675407 6.18235
1 2.52153 10.9416 2.07555
1 1.72851 2.33736 11.8158
1 10.512 9.46962 9.51935
1 2.61407 10.671 6.25091
1 8.16564 6.41837 2.38387
1 11.5299 10.2462 4.45431
96
 Atoms. Timestep: 14000
2 1.51909 7.90617 4.00694
2 9.7068 7.98536 1.35169
2 10.7891 3.76511 3.24341
2 6.67418 11.8781 10.7399
2 11.4619 9.0828 8.03531
2 9.79842 11.4994 12.8559
2 11.0428 8.72467 3.8077
2 6.31687 9.7423 2.08488
2 11.1216 6.29577 6.5747
2 5.02499 8.44534 12.8261
2 2.10024 4.42382 4.45373
2 8.21053 1.80925 11.8661
2 3.79644 8.24312 7.69258
2 8.44254 9.73168 10.623
2 11.4889 4.20282 5.60902
2 4.99987 11.7681 2.04446
2 0.339913 5.61291 4.33869
2 5.32518 9.69212 11.1018
2 3.84408 5.94219 6.03732
2 5.75117 2.56456 10.8586
2 1.5298 7.20909 8.55728
2 7.63601 0.409529 2.19247
2 9.02406 6.51898 6.68731
2 7.05827 7.60913 1.95303
2 9.00008 9.41625 8.33794
2 3.91662 8.35474 3.23205
2 0.475766 6.24442 12.0377
2 9.31665 2.63035 2.08549
2 1.86207 9.38244 7.92291
2 10.5856 8.5301 11.8677
2 9.44089 4.1164 7.6597
2 6.42567 10.889 4.14187
2 2.84786 2.64556 6.19732
2 2.74524 0.744516 12.5668
2 11.2254 6.88008 2.32527
2 3.09094 8.53495 10.3518
2 11.3417 1.58397 6.23057
2 3.40016 4.25254 12.2716
2 4.67482 9.04716 5.51364
2 7.6618 10.0989 8.37737
2 1.43114 1.9566 7.9516
2 4.0848 10.637 12.9566
2 9.36898 1.98998 4.92663
2 7.84743 2.25997 9.26937
2 0.947158 2.71837 3.23481
2 9.63971 1.19337 7.42979
2 11.2965 11.8655 8.8876
2 0.622699 10.4682 5.84048
2 9.13198 3.93691 4.65505
2 10.1885 10.5931 10.2357
2 2.63947 10.0487 2.06801
2 0.890888 3.27516 12.147
2 1.61187 1.3385 4.77446
2 0.799582 0.943872 10.8737
2 2.44465 11.9116 2.7536
2 10.7627 2.17391 9.28287
2 12.1007 0.878198 1.54986
2 2.39528 11.8642 6.36139
2 10.2497 8.69074 5.72775
2 11.8026 11.4162 3.79524
2 7.75719 8.54359 5.53945
2 10.1134 11.1082 5.39491
2 9.27441 7.1792 4.07898
2 2.73099 9.08204 5.16666
1 9.03716 7.54049 5.53166
1 5.27585 8.29674 1.90987
1 11.7408 7.23632 7.88687
1 8.77732 0.910323 0.907892
1 2.67154 8.29836 8.91625
1 9.94772 10.2769 11.7179
1 9.96789 5.04795 6.36063
1 6.39883 11.2646 2.50001
1 3.22085 4.50589 5.60487
1 6.97586 1.64034 10.5982
1 11.9422 7.22924 3.89649
1 3.99258 9.14901 11.5843
1 0.475844 3.947 4.06931
1 4.91819 3.41477 12.2494
1 3.89446 7.86741 6.15771
1 6.7725 10.3395 9.97294
1 11.0949 7.57125 0.636261
1 0.493585 1.55228 9.23077
1 1.31597 1.73186 6.39631
1 9.35717 2.60478 8.44904
1 2.58384 9.07986 3.46818
1 6.18419 9.52047 4.99464
1 9.6023 2.76124 3.61773
1 1.89239 4.59456 12.0077
1 1.04046 0.7884 3.06576
1 9.83242 0.662182 5.81071
1 3.38812 11.7279 1.55604
1 1.20891 1.42756 12.5067
1 10.7922 10.2996 8.82831
1 2.0902 10.1827 6.59605
1 8.57583 7.5681 2.53165
1 11.2505 10.075 4.89746
96
 Atoms. Timestep: 16000
2 2.39745 8.13829 3.29323
2 10.1438 6.18092 1.08312
2 11.4879 5.23667 2.47295
2 5.90171 1.87364 10.3794
2 0.420145 9.02544 9.18607
2 8.04541 11.4216 11.4295
2 11.7996 9.22578 4.11243
2 5.7587 9.36588 0.606936
2 1.3403 6.03165 8.07983
2 4.89214 6.64267 11.8924
2 1.54566 4.19015 5.59331
2 7.1994 1.2671 12.2218
2 4.57508 8.09784 8.57657
2 6.79193 11.1732 9.18012
2 10.7396 4.99974 5.48293
2 4.18055 11.969 1.9555
2 0.469686 6.20508 4.18778
2 5.36474 11.1991 11.2679
2 3.7091 6.01533 7.27703
2 6.78458 3.93986 10.8048
2 2.48322 7.23125 10.0603
2 6.52519 11.3499 1.74292
2 9.25283 6.62135 6.33148
2 7.27907 6.12125 1.29463
2 10.9236 10.3019 7.3095
2 5.58735 7.6275 2.3251
2 0.971409 5.38551 12.7437
2 9.19596 0.961957 1.42573
2 2.60669 9.00449 8.37308
2 7.3704 9.03238 11.4029
2 9.80475 3.78774 7.7611
2 6.08305 9.73053 3.20411
2 1.62254 3.34135 7.52944
2 1.52317 0.515867 12.6333
2 11.7585 7.7351 2.4712
2 3.66957 8.38705 11.3138
2 11.5553 2.11274 6.50089
2 3.81405 4.19195 11.6774
2 5.26034 7.32892 5.7184
2 4.39382 0.57349 9.02188
2 0.489246 0.805657 8.15537
2 3.32418 10.5647 12.7569
2 9.92105 2.03324 3.79565
2 8.23453 2.29879 9.34171
2 0.910298 3.09998 3.62936
2 9.3252 1.61434 6.5341
2 11.3279 11.3335 9.71523
2 1.1693 10.0985 5.68216
2 9.34671 3.83438 1.89636
2 9.65771 9.75767 9.95775
2 4.3732 10.3743 4.07493
2 1.66054 3.09977 12.0362
2 1.98974 1.43672 5.37066
2 11.6204 1.88555 10.9003
2 1.91206 0.57255 2.63101
2 10.6572 2.05744 8.46325
2 11.2728 2.1108 1.32357
2 2.73115 11.6291 7.34099
2 10.1957 8.62109 5.53334
2 11.8455 1.04401 4.09884
2 7.53716 7.71622 4.42632
2 10.3734 11.7595 5.52945
2 8.78902 6.23591 3.63603
2 3.01641 8.79621 6.19038
1 8.97781 7.56383 5.00598
1 6.00596 7.29434 0.886811
1 1.45292 7.70542 8.86274
1 8.09774 11.9477 0.72767
1 3.95078 7.43393 10.4052
1 8.06853 10.095 10.1288
1 9.93648 5.11094 7.01805
1 5.07757 10.8827 2.74865
1 2.31804 5.05941 6.86838
1 7.34621 2.46715 10.6994
1 0.851579 8.0441 3.84261
1 4.57196 9.94125 11.9151
1 11.9897 4.47048 4.34378
1 5.36314 4.67517 11.0504
1 4.34487 7.44394 6.94105
1 5.48965 12.1526 9.86827
1 12.0236 6.57011 1.49404
1 11.8515 1.05702 9.6332
1 1.69125 1.59331 6.8482
1 9.07297 2.33346 8.06468
1 3.45737 9.0665 4.53766
1 5.86065 7.96112 4.1086
1 9.76232 2.30422 2.04696
1 2.29134 4.69478 11.7152
1 1.46399 1.76238 3.78041
1 10.4733 1.38649 5.24688
1 2.53657 11.8184 1.27807
1 0.527879 1.90813 12.345
1 11.0141 9.91409 8.77015
1 2.26739 10.0385 7.16335
1 8.66757 5.47177 1.99101
1 11.2727 10.0854 5.61321
96
 Atoms. Timestep: 18000
2 1.91566 9.41476 4.27122
2 11.0569 6.46859 0.759089
2 1.42148 5.31288 2.13126
2 6.02338 11.7351 10.0865
2 0.760844 8.68189 9.25169
2 8.45543 10.5223 11.7718
2 10.6926 8.72789 5.16742
2 4.70706 7.6806 12.7909
2 1.38375 4.11477 8.62298
2 5.93664 5.39732 0.955611
2 1.49595 5.03123 4.69808
2 7.44518 1.1598 12.2838
2 4.34998 8.25077 7.32718
2 7.27329 9.31033 10.3044
2 10.6705 5.03522 4.69274
2 4.2926 0.827159 1.04806
2 11.7055 6.81398 4.05777
2 5.83043 10.6719 12.1844
2 3.21128 6.21158 6.08212
2 6.17813 3.06166 11.3638
2 2.94036 8.22282 9.52177
2 7.23488 11.6911 2.07336
2 9.67071 6.10874 6.28465
2 7.95278 6.60419 1.73167
2 10.3925 8.94117 7.63991
2 6.35993 7.18918 2.93452
2 2.13311 5.35497 11.5343
2 8.92 1.73184 1.8693
2 2.87204 10.1015 7.23626
2 7.30302 8.14134 12.0132
2 9.60322 3.0536 7.5122
2 5.084 9.53347 4.2947
2 0.567347 4.35426 6.53811
2 1.78355 1.63917 1.13639
2 0.753468 6.86069 11.1822
2 1.99284 8.24389 11.9627
2 10.3699 12.0244 6.3743
2 4.03989 3.55368 1.01548
2 4.97354 7.56464 4.64285
2 4.54584 9.79531 9.62537
2 11.6217 2.58499 7.986
2 2.91361 8.69975 2.56279
2 10.1933 2.4381 4.0936
2 8.21057 1.94742 9.90212
2 0.899232 3.26912 3.78859
2 8.35228 11.2854 8.03444
2 11.4088 11.1424 9.3142
2 11.8186 10.4387 6.277
2 9.58074 4.579 2.20197
2 9.91981 9.19563 10.1495
2 4.35334 10.5637 2.41306
2 1.48206 3.38651 11.4991
2 2.50144 2.95593 5.65314
2 10.8722 2.02607 11.1336
2 3.62448 2.19552 3.17974
2 9.90131 0.771781 8.72003
2 10.5419 2.67146 1.17401
2 1.64297 1.14708 7.09503
2 8.52471 10.0802 7.21785
2 1.09211 1.12144 4.42326
2 7.70993 7.88313 4.64443
2 10.2839 11.1897 4.47996
2 9.26008 6.83573 3.36411
2 3.32248 10.9708 5.33584
1 9.42419 7.3666 5.04036
1 6.51396 7.21898 1.04696
1 1.56967 7.98869 10.4446
1 8.62299 0.43074 0.893132
1 3.73102 9.11504 8.29014
1 8.63165 9.08115 11.0595
1 10.4777 4.54148 6.46379
1 5.58539 11.4925 1.58555
1 1.8038 5.62672 6.43772
1 6.98851 1.45335 10.7307
1 12.0352 8.32249 4.35685
1 3.28977 8.30962 0.997612
1 11.8714 5.02293 3.44719
1 5.19283 4.08265 12.3415
1 3.85995 7.5657 5.89422
1 5.82149 10.1026 10.4534
1 1.08366 5.92824 12.5944
1 11.1799 1.2992 9.63933
1 1.67841 2.80613 7.0525
1 8.7286 1.62503 8.37478
1 3.43309 9.65366 3.84168
1 6.33604 8.33701 4.18307
1 9.9517 2.81188 2.55172
1 2.01009 4.41319 10.1427
1 2.32439 2.45239 4.26642
1 11.0253 1.09793 4.98554
1 3.3105 2.05853 1.52634
1 0.419423 2.28995 12.3815
1 10.9386 9.4901 8.86702
1 2.00644 11.2093 6.40809
1 9.66221 6.64014 1.84312
1 10.2316 10.0075 6.19459
96
 Atoms. Timestep: 20000
2 1.53576 8.46545 3.56015
2 9.57336 5.4965 1.26357
2 11.6251 5.44126 2.56086
2 5.6916 0.836926 10.8047
2 11.2239 8.95611 10.8315
2 8.37689 10.4446 12.4517
2 10.7472 9.13014 5.28409
2 5.07336 8.41867 11.9376
2 1.53551 5.76641 8.5482
2 6.61679 5.92971 11.6873
2 0.384364 6.79121 5.39506
2 8.04315 0.469848 11.2682
2 4.03398 7.44621 7.81071
2 6.20781 9.90209 10.9207
2 11.1174 4.49031 5.25813
2 4.82564 1.05916 1.03714
2 10.3398 7.1152 4.15338
2 4.92608 10.4043 12.5121
2 2.35595 6.48583 6.16547
2 7.09098 3.47748 11.033
2 1.68258 8.08254 9.80047
2 6.87152 11.7292 1.68903
2 8.78769 5.38633 5.26457
2 7.57018 3.98822 1.34056
2 11.0566 9.67977 8.11949
2 6.1007 6.7981 1.83053
2 3.9152 5.32791 9.04702
2 9.78792 0.976253 0.8392
2 2.74984 9.98775 8.24781
2 7.33616 7.89374 11.4867
2 9.09247 3.72743 7.36742
2 4.45415 7.84731 3.64511
2 12.3817 4.31293 6.97062
2 2.76785 2.12282 12.9166
2 12.1278 7.23271 12.5083
2 1.70583 9.09511 11.694
2 12.092 1.94718 6.18485
2 5.40477 3.41826 0.691073
2 5.02457 6.59588 5.16037
2 3.49424 8.6926 10.8091
2 0.604465 2.25619 8.80078
2 3.42204 8.41849 1.73776
2 11.9096 0.649532 3.1372
2 7.88261 1.42101 8.99158
2 1.80733 4.41564 3.97202
2 9.33105 0.872771 6.69941
2 11.1921 11.5458 9.52281
2 11.8005 11.4794 7.17055
2 10.0769 2.65162 2.74999
2 8.7703 9.53347 9.82627
2 3.95126 10.7062 2.65346
2 1.85084 4.29232 11.4175
2 2.38892 3.02153 6.17558
2 11.9585 1.6218 11.2418
2 3.60136 3.43086 2.90297
2 10.1114 2.2963 8.40699
2 0.165087 2.18064 1.19354
2 2.00133 1.25845 7.57939
2 9.70419 11.2394 6.89726
2 1.3752 2.39763 4.42696
2 7.61782 7.47771 3.41418
2 12.0488 11.0125 5.17256
2 9.12716 4.72825 3.18639
2 2.62385 11.9176 4.46487
1 8.81374 6.46968 3.9437
1 6.05708 7.37703 12.4576
1 0.63832 8.0315 11.2629
1 8.16806 11.9225 0.623824
1 3.12168 8.25982 9.13856
1 7.77134 9.54766 11.0914
1 9.85579 4.76128 6.48402
1 5.41748 10.9844 1.75393
1 0.901081 5.96851 7.00322
1 7.41315 1.64487 10.5128
1 11.9423 8.09602 4.37846
1 3.46643 9.26762 12.5572
1 11.9581 5.29601 4.15212
1 6.75416 4.30608 12.3348
1 3.87737 6.77664 6.31575
1 5.097 11.2204 11.1379
1 11.1291 6.77413 1.37463
1 11.1329 1.49827 9.70592
1 1.32583 2.6958 7.31773
1 8.5669 2.14261 7.72948
1 3.37669 8.89569 3.22845
1 5.89141 7.09759 3.55493
1 10.8521 1.31675 2.13293
1 2.39759 4.93294 9.88011
1 2.80217 3.13958 4.50045
1 0.987084 0.781002 4.64713
1 4.22451 2.59915 1.5741
1 1.3877 2.74332 12.183
1 10.4938 9.89143 9.72824
1 1.56782 11.3943 7.89804
1 9.38917 3.8735 1.8303
1 10.9359 10.2124 6.39429
96
 Atoms. Timestep: 22000
2 0.926916 7.96258 3.76486
2 10.1599 6.93649 0.8035
2 11.9152 6.2734 2.58386
2 6.4712 0.755717 10.1024
2 11.5552 8.58775 9.64633
2 8.61398 9.86578 12.3133
2 10.4938 8.78612 5.55285
2 4.99648 7.82661 12.4535
2 0.494187 5.62987 8.79985
2 5.67882 5.2797 0.753081
2 11.7248 6.25124 5.94827
2 8.64568 0.825396 11.829
2 4.34916 7.57978 7.85969
2 6.39537 10.275 11.1524
2 11.0838 3.86994 4.00844
2 4.02058 0.876985 2.0719
2 9.70689 7.76178 3.97935
2 4.57513 10.4593 12.2513
2 2.24567 5.73783 7.16889
2 7.15982 3.04104 11.8064
2 1.91228 6.18449 10.3217
2 6.86746 11.4589 1.61503
2 9.12911 5.53788 4.36848
2 7.82592 5.32989 12.428
2 10.0552 9.65758 7.59766
2 5.5435 7.32395 2.65969
2 3.01053 4.39003 9.31658
2 8.99459 1.49928 1.69665
2 3.14491 10.0079 7.85443
2 7.1528 7.50192 12.1423
2 9.43787 3.72954 6.36284
2 3.5476 8.26538 3.73294
2 1.18557 3.9158 7.7803
2 2.66432 2.38775 1.36618
2 1.02291 7.19633 11.8155
2 2.93602 8.10583 9.69617
2 2.38641 0.745368 7.70004
2 5.94725 3.02312 1.94974
2 4.67891 7.22018 5.26747
2 5.01031 10.0653 9.73967
2 10.7395 4.40979 7.71579
2 2.43182 8.71934 1.39949
2 11.1352 1.45916 3.31619
2 8.43375 2.09888 9.15337
2 2.25713 4.13288 3.42721
2 10.2586 1.75305 6.99097
2 11.1614 11.1971 10.1317
2 12.2004 10.5589 7.00265
2 10.075 4.41032 1.90684
2 8.81288 8.55929 10.168
2 5.40414 9.75884 2.55932
2 2.00683 3.92876 11.3931
2 2.6502 3.05029 6.46428
2 1.42309 1.42151 11.4038
2 3.90647 2.76487 3.98716
2 10.4386 2.12464 9.23189
2 11.7503 3.05469 1.41455
2 1.2977 2.27579 9.18883
2 10.2182 12.0501 6.60361
2 2.10952 1.25518 4.53395
2 6.57073 7.52736 4.37273
2 11.7485 11.5424 5.24413
2 7.85356 5.9332 2.31738
2 1.83327 10.8537 3.11881
1 8.01322 6.69437 3.84176
1 5.91531 6.94462 1.09867
1 1.45871 7.93486 10.3384
1 8.69219 11.5285 0.981646
1 3.95586 8.93398 8.69343
1 7.50474 8.81169 11.2202
1 10.1229 4.53371 5.26315
1 5.11163 11.0246 1.50904
1 0.735746 5.31231 7.21178
1 7.72211 1.5967 10.5877
1 11.3698 7.51826 4.54517
1 3.17247 8.26924 12.1959
1 0.731223 4.71999 2.95485
1 6.58094 4.07657 12.9891
1 3.74348 6.74778 6.75521
1 5.12016 11.3838 10.5748
1 11.7116 7.08277 0.976814
1 11.7571 1.24298 9.98761
1 2.12605 2.2634 7.88645
1 9.60124 2.95815 7.96772
1 2.13678 9.03612 3.26283
1 5.13168 8.24358 4.02683
1 10.3535 2.83343 2.5023
1 1.51716 4.80099 9.97107
1 2.65749 2.9548 4.75508
1 0.913956 12.0942 3.68113
1 4.3012 2.4707 2.3231
1 1.54725 2.69741 12.449
1 10.2547 9.60662 9.38467
1 2.03112 10.7585 7.10669
1 9.00077 5.64264 1.09119
1 10.5702 10.4327 6.37523
96
 Atoms. Timestep: 24000