96
 Atoms. Timestep: 0
2 0 7.95642 4.74695
2 4.63304 0 11.358
2 0 4.63304 4.74695
2 7.95642 0 11.358
2 0 4.63304 8.47514
2 7.95642 0 1.8641
2 0 7.95642 8.47514
2 4.63304 0 1.8641
2 10.7421 8.43088 6.61105
2 4.15858 10.7421 0
2 1.84736 4.15858 6.61105
2 8.43088 1.84736 0
2 1.84736 8.43088 6.61105
2 8.43088 10.7421 0
2 10.7421 4.15858 6.61105
2 4.15858 1.84736 0
2 10.5201 6.29473 5.04003
2 6.29473 10.5201 11.6511
2 2.06934 6.29473 5.04003
2 6.29473 2.06934 11.6511
2 2.06934 6.29473 8.18207
2 6.29473 2.06934 1.57102
2 10.5201 6.29473 8.18207
2 6.29473 10.5201 1.57102
2 10.1594 8.65935 9.20274
2 3.93011 10.1594 2.59169
2 2.43004 3.93011 9.20274
2 8.65935 2.43004 2.59169
2 2.43004 8.65935 9.20274
2 8.65935 10.1594 2.59169
2 10.1594 3.93011 9.20274
2 3.93011 2.43004 2.59169
2 2.43004 3.93011 4.01936
2 8.65935 2.43004 10.6304
2 10.1594 8.65935 4.01936
2 3.93011 10.1594 10.6304
2 10.1594 3.93011 4.01936
2 3.93011 2.43004 10.6304
2 2.43004 8.65935 4.01936
2 8.65935 10.1594 10.6304
2 0 10.703 0
2 1.88643 0 6.61105
2 0 1.88643 0
2 10.703 0 6.61105
2 0 0 1.872
2 0 0 8.48305
2 0 0 11.3501
2 0 0 4.73905
2 11.2706 2.31295 2.18973
2 10.2765 11.2706 8.80078
2 1.31887 10.2765 2.18973
2 2.31295 1.31887 8.80078
2 1.31887 2.31295 2.18973
2 2.31295 11.2706 8.80078
2 11.2706 10.2765 2.18973
2 10.2765 1.31887 8.80078
2 1.31887 10.2765 11.0324
2 2.31295 1.31887 4.42131
2 11.2706 2.31295 11.0324
2 10.2765 11.2706 4.42131
2 11.2706 10.2765 11.0324
2 10.2765 1.31887 4.42131
2 1.31887 2.31295 11.0324
2 2.31295 11.2706 4.42131
1 11.0086 7.83654 8.10972
1 4.75292 11.0086 1.49867
1 1.5809 4.75292 8.10972
1 7.83654 1.5809 1.49867
1 1.5809 7.83654 8.10972
1 7.83654 11.0086 1.49867
1 11.0086 4.75292 8.10972
1 4.75292 1.5809 1.49867
1 1.5809 4.75292 5.11238
1 7.83654 1.5809 11.7234
1 11.0086 7.83654 5.11238
1 4.75292 11.0086 11.7234
1 11.0086 4.75292 5.11238
1 4.75292 1.5809 11.7234
1 1.5809 7.83654 5.11238
1 7.83654 11.0086 11.7234
1 10.1088 10.1088 3.30552
1 2.48067 10.1088 9.91657
1 2.48067 2.48067 3.30552
1 10.1088 2.48067 9.91657
1 2.48067 10.1088 3.30552
1 10.1088 10.1088 9.91657
1 10.1088 2.48067 3.30552
1 2.48067 2.48067 9.91657
1 0 1.60471 1.57853
1 10.9848 0 8.18958
1 0 10.9848 1.57853
1 1.60471 0 8.18958
1 0 10.9848 11.6436
1 1.60471 0 5.03252
1 0 1.60471 11.6436
1 10.9848 0 5.03252
96
 Atoms. Timestep: 2000
2 12.6729 8.23642 5.65489
2 4.95603 12.0953 11.3447
2 -0.00422286 4.81169 4.48294
2 7.61863 11.7974 10.4838
2 0.399077 4.00094 8.36522
2 7.48265 12.079 1.51923
2 0.0651483 7.53836 8.48704
2 4.20697 12.696 1.50567
2 11.0246 7.49106 6.97246
2 4.38419 10.8351 13.1566
2 1.38246 4.59181 6.21851
2 6.51845 12.5701 3.62545
2 2.06449 8.60094 6.63261
2 7.81563 10.0102 13.426
2 11.4735 3.68575 6.96717
2 3.91497 1.78286 13.1015
2 10.7286 5.93018 4.82433
2 6.60955 9.79106 11.3765
2 1.67919 6.89905 5.06065
2 6.28811 0.821983 11.5915
2 2.41855 6.32629 7.44225
2 5.8736 1.22842 2.44854
2 10.8279 5.89509 8.45026
2 5.75654 10.4974 1.99881
2 10.5417 8.50916 9.0763
2 3.35703 10.5207 2.34113
2 3.03951 4.29687 8.7142
2 8.913 1.56159 3.14912
2 2.37461 8.99407 9.26299
2 8.35157 10.6726 2.73716
2 10.6788 3.05263 8.83801
2 3.58371 2.55405 2.35599
2 2.07813 4.27023 3.58126
2 9.01682 1.2721 10.5572
2 10.6909 9.07289 4.13008
2 3.94752 10.3728 10.6857
2 10.1293 3.97176 4.47602
2 3.85703 2.05903 10.6468
2 1.70467 9.61302 3.89423
2 9.38253 9.78317 10.338
2 12.2022 11.3343 -0.0411542
2 1.64158 1.1783 6.49879
2 12.0076 2.35446 13.0179
2 11.3031 0.0991686 6.70274
2 11.8221 0.551494 1.25699
2 0.6889 11.9586 8.17666
2 0.264421 0.466067 11.1263
2 0.0258027 0.529568 5.09027
2 10.8758 2.71285 2.29577
2 10.7055 11.2634 8.97979
2 1.11145 11.8127 1.94073
2 1.88998 1.42567 9.27342
2 0.538647 2.79327 2.19184
2 2.53697 11.4676 9.13743
2 11.3337 10.9932 2.50499
2 10.9946 0.626329 9.13945
2 1.01041 10.272 11.5311
2 1.81802 2.08607 3.93337
2 11.1337 2.79224 11.1565
2 10.4466 11.1119 4.65868
2 12.1869 10.716 10.4322
2 10.2715 1.30471 4.55405
2 1.56693 2.85383 11.1947
2 2.47009 12.3957 4.13798
1 11.372 7.30192 8.42643
1 4.44175 10.9794 1.15524
1 1.86341 4.82254 7.70155
1 7.21443 0.457846 2.69885
1 1.61011 7.79797 8.19869
1 7.4626 10.2742 1.49694
1 11.6091 4.38252 8.45992
1 4.38232 1.31679 1.32286
1 1.62031 5.32204 4.83171
1 7.64616 0.531737 11.0013
1 11.069 7.48249 5.29232
1 5.22698 10.3739 11.6942
1 11.356 4.54293 5.35475
1 4.75983 1.14957 11.7718
1 1.42477 8.70127 5.29876
1 8.25642 10.5127 11.3795
1 9.86248 10.1662 3.09169
1 2.32563 10.3467 10.1132
1 2.06949 3.01219 2.4484
1 10.3155 1.89143 9.97026
1 2.09632 11.0561 3.01575
1 10.7392 10.0185 10.0471
1 10.1244 2.67391 3.58023
1 2.64559 2.71826 9.94853
1 12.0632 2.02381 1.28154
1 11.7111 12.3383 8.12704
1 12.3868 11.7458 1.45411
1 2.10473 0.171719 7.94258
1 -0.0429166 11.5279 11.7182
1 1.5781 0.726232 4.84379
1 12.6833 2.0978 11.5356
1 11.0851 12.8744 5.10079
96
 Atoms. Timestep: 4000
2 0.0768156 7.37011 4.71397
2 3.83276 0.566063 11.8585
2 0.431865 4.62554 3.18537
2 7.21787 0.934824 13.0352
2 11.7738 5.09371 8.26721
2 7.66001 0.894086 0.896611
2 12.0284 7.43817 8.577
2 7.81392 4.24669 3.44485
2 10.5767 7.59333 6.07482
2 4.478 12.0923 0.894129
2 0.879693 4.29071 6.38131
2 9.2748 12.2074 3.69529
2 1.57219 7.79074 7.15405
2 7.32341 10.8933 -0.228989
2 10.8432 4.40889 6.40068
2 4.07804 3.72086 12.1924
2 10.8117 5.96552 3.80499
2 5.82285 12.0173 12.0492
2 1.78967 6.03367 4.95842
2 5.80769 1.66729 10.6421
2 1.25003 6.05894 8.79489
2 7.17747 1.98971 3.36159
2 9.62815 5.85648 8.3505
2 6.71254 0.0336449 2.74617
2 10.3584 8.95352 9.32849
2 4.20069 11.0883 2.85582
2 0.92303 3.13917 8.51734
2 9.86126 1.34817 2.26589
2 1.9843 8.93077 9.77861
2 9.72898 10.0905 1.35006
2 9.8318 2.65168 7.8375
2 5.00903 3.48352 3.34186
2 2.25095 3.62583 4.19122
2 8.21302 0.701555 9.68221
2 11.5327 8.39376 3.31426
2 3.64242 10.5178 11.5352
2 10.94 3.29021 4.15673
2 2.79033 2.09949 10.7961
2 2.71781 8.73508 4.34273
2 8.33351 11.4841 10.5379
2 0.611623 11.0621 -0.0171684
2 1.81425 0.0350759 6.50786
2 11.746 2.39184 12.8343
2 10.6747 11.2286 6.40222
2 0.432034 0.287902 1.39583
2 0.142876 11.7563 7.94757
2 11.9639 -0.138855 12.1011
2 0.323685 0.219479 4.71765
2 11.9773 1.86702 1.99847
2 10.4585 11.5247 8.71171
2 1.43157 11.1369 3.2478
2 1.35311 0.853197 8.40732
2 1.92755 2.87655 2.40837
2 2.58778 11.3354 8.85026
2 12.0445 11.0122 1.67172
2 10.4955 0.637853 7.77304
2 0.694633 11.0323 10.9632
2 2.73621 1.59841 4.17612
2 10.3383 1.65177 10.6266
2 10.297 10.5246 3.77837
2 11.2665 10.3755 11.2381
2 11.4497 0.238826 5.07903
2 -0.00676492 1.90226 10.1902
2 3.04465 11.8142 4.74399
1 10.3401 7.65477 8.06916
1 5.63127 11.6417 2.00487
1 0.608908 4.56975 8.0956
1 8.26305 0.656837 2.70714
1 0.892522 7.76403 8.59545
1 8.27187 9.74862 0.508613
1 10.4416 4.16146 8.14993
1 6.67244 3.3357 3.86193
1 1.11368 4.66925 4.67696
1 7.08227 1.03774 11.0843
1 11.3569 7.30025 4.25185
1 4.25912 11.7031 12.8226
1 10.7104 4.58496 4.83779
1 4.33241 2.06338 11.264
1 1.45306 7.84772 5.3356
1 7.29584 11.1439 11.5709
1 10.9282 9.35909 2.29906
1 2.27693 10.4445 10.2989
1 3.41232 2.69163 3.00623
1 9.41915 1.51134 8.84747
1 2.8916 10.3612 3.83276
1 9.92978 10.8074 9.99255
1 10.8273 2.07976 3.23424
1 1.59941 2.03134 9.8191
1 0.75797 1.84603 1.80236
1 11.2502 12.0843 7.67155
1 0.68324 11.4194 1.48003
1 1.72707 12.2152 7.77773
1 12.6097 11.3298 12.0527
1 1.94408 0.298804 4.85048
1 11.6998 1.21563 11.2524
1 10.199 11.7255 4.8054
96
 Atoms. Timestep: 6000
2 12.6004 8.28298 5.42563
2 2.72612 12.1998 12.8949
2 0.12505 4.77418 5.39739
2 9.33455 -0.0633578 0.475414
2 12.3482 4.09686 8.68601
2 10.2019 3.45462 4.34537
2 11.786 7.17616 7.79584
2 6.6639 11.7185 5.36389
2 10.4132 8.45314 6.95594
2 4.48938 11.3755 0.299926
2 1.79251 3.79623 6.52719
2 8.88558 1.43264 4.62218
2 1.68786 7.98944 6.62118
2 9.093 9.52552 0.222462
2 10.9286 4.1036 6.62543
2 2.96249 1.90356 12.8066
2 10.3784 6.65871 5.42252
2 7.33233 12.014 12.6548
2 2.38018 6.37357 4.66062
2 5.0204 0.731017 11.3575
2 1.74468 5.96337 8.22048
2 7.66108 2.96557 2.54066
2 10.126 5.94076 8.58142
2 7.45941 0.880907 1.68637
2 10.5459 8.7697 9.35145
2 4.16371 9.24138 2.05086
2 1.98538 2.95137 8.74917
2 10.6106 3.15724 2.3011
2 1.70677 8.40839 9.23913
2 8.74701 11.5516 2.25509
2 9.69279 3.56627 9.13691
2 5.22236 2.12746 2.99326
2 2.83507 3.40897 4.38477
2 7.5044 1.43488 10.159
2 10.0756 9.14763 4.24925
2 2.42201 9.52407 11.3327
2 11.7802 4.30233 3.46898
2 2.24902 1.03242 10.4471
2 2.51287 8.54827 3.90032
2 9.0949 10.6488 11.1459
2 12.0572 10.8323 0.127332
2 2.34289 11.8614 6.15899
2 11.7084 3.21692 12.8521
2 8.77327 12.5362 6.68502
2 0.952343 0.403254 0.964309
2 11.6301 -0.100427 6.94692
2 12.0471 0.764641 11.986
2 1.48751 12.0676 3.25022
2 0.611664 2.46767 1.32498
2 10.7559 11.6657 8.75391
2 2.1116 10.3477 1.34716
2 1.37022 0.602184 8.00401
2 3.25005 2.03883 1.82064
2 1.16205 10.6959 8.54731
2 11.7744 10.2531 2.9459
2 9.98828 1.74835 8.36736
2 0.159969 10.0305 11.2273
2 3.53131 1.54074 4.82985
2 10.385 2.82451 10.8626
2 9.55198 9.2128 1.92911
2 11.1215 11.1335 10.6116
2 8.43206 11.0002 4.30913
2 0.00943796 2.4372 9.91459
2 3.31701 11.1934 3.77227
1 10.3597 7.64774 8.31483
1 5.92271 11.9903 0.343413
1 1.36782 4.2202 7.93516
1 9.31374 2.73252 3.12663
1 1.15587 7.44278 8.06901
1 8.96046 0.650334 2.12078
1 10.7818 4.48767 8.16032
1 6.34627 2.02229 1.56337
1 1.95456 4.48207 4.82628
1 6.70642 0.10907 10.9561
1 10.7871 8.28485 5.43273
1 2.87893 10.3489 13.0064
1 10.9583 4.96331 4.95727
1 3.37651 0.814072 11.6166
1 1.57662 7.84154 4.99365
1 8.7789 11.0721 12.5855
1 9.45012 10.1599 3.27343
1 1.49672 9.89714 10.0264
1 3.80021 2.71052 3.39312
1 9.15812 2.06368 9.82522
1 2.79896 9.90017 2.84411
1 10.0554 10.3046 9.6629
1 12.0522 3.70653 1.22495
1 1.37642 1.70278 9.32967
1 2.13141 1.43469 1.10304
1 10.2094 0.223949 7.62416
1 0.518316 11.1619 1.67918
1 0.886726 11.9202 6.94044
1 12.0189 11.4419 11.7667
1 2.7093 0.203224 4.62417
1 11.832 2.1646 11.5274
1 8.3243 12.2383 5.23041
96
 Atoms. Timestep: 8000
2 -0.0212287 7.61329 3.82246
2 5.10349 12.4675 10.3311
2 12.0783 4.41226 3.89805
2 7.09509 10.4903 0.924176
2 12.0784 4.04761 7.96981
2 9.51766 3.9059 3.12467
2 12.3115 7.91529 7.79434
2 6.98327 11.9473 4.37823
2 11.0271 8.73909 6.08718
2 4.53954 9.43244 0.732967
2 1.63676 4.5573 5.69391
2 8.65982 1.11422 4.00938
2 2.40231 7.8288 5.84527
2 8.23541 0.855232 7.73631
2 9.70387 4.75344 5.88038
2 3.10238 1.42738 12.6355
2 10.4485 6.6208 4.57723
2 5.91739 0.0288716 0.763714
2 2.3801 7.66897 2.89179
2 5.80087 1.40845 12.6358
2 1.09458 6.27724 7.04563
2 8.25146 0.836523 6.18306
2 10.2352 6.67027 8.06093
2 5.57273 10.9362 3.36766
2 10.4445 9.03532 9.30368
2 3.03056 10.6063 4.77955
2 2.01113 3.41417 8.39051
2 7.94309 0.88385 1.91825
2 1.63712 7.89995 9.29757
2 9.4249 10.652 0.848419
2 9.94222 4.38006 8.4025
2 4.63885 0.48337 5.31893
2 1.91247 5.02257 2.53037
2 7.84824 2.86919 1.71354
2 10.5568 9.38836 3.3021
2 6.09869 9.76026 10.5305
2 10.7445 2.40567 2.21672
2 3.01796 1.69104 10.2149
2 1.40209 9.81055 3.9111
2 8.86516 10.042 9.98341
2 0.464335 11.7128 0.525702
2 0.766751 11.6027 5.51999
2 12.0285 2.76685 12.534
2 10.0144 12.4083 5.79453
2 1.89029 0.903201 1.66009
2 12.0075 11.9611 6.89806
2 0.341598 0.59919 11.8291
2 1.31575 9.52368 8.0708
2 1.24818 2.95483 1.51658
2 10.5521 11.8715 8.83175
2 11.5948 11.5558 2.6878
2 1.53516 0.45352 7.98394
2 3.70493 3.35762 1.55285
2 3.67432 9.97539 9.58417
2 11.7904 0.874727 1.45369
2 10.242 1.25054 8.51604
2 1.18176 10.3026 11.2749
2 2.85726 1.83529 7.43115
2 10.8465 3.18958 10.2751
2 3.45581 9.49908 5.86992
2 11.3182 11.3459 11.1726
2 9.02321 11.6623 3.42745
2 1.06329 2.24147 10.4614
2 1.99798 0.393541 4.81199
1 10.7171 8.15454 7.83703
1 5.65627 10.8418 1.70342
1 0.952858 4.54788 7.287
1 9.23026 2.11845 2.77699
1 1.31071 7.70991 7.54402
1 8.41322 9.78987 13.2405
1 9.34959 5.72151 7.12583
1 5.51317 12.0286 4.52647
1 1.14274 4.81687 3.84823
1 6.65089 1.87336 0.741577
1 11.3207 8.23159 4.47443
1 4.95302 10.9707 9.83697
1 10.4008 5.00759 4.25314
1 4.32529 0.943845 11.6684
1 1.6925 8.00384 4.36628
1 7.67118 10.2106 11.086
1 10.2519 10.8543 2.62805
1 2.17623 9.62492 9.96824
1 3.52222 4.72585 1.81483
1 10.8991 3.14656 8.61962
1 1.59195 11.5618 4.14194
1 10.5959 10.7391 9.73397
1 12.2335 2.59467 0.898054
1 1.92589 1.76471 8.91183
1 2.71425 2.16321 0.787884
1 10.6488 0.00570892 7.37443
1 0.344905 12.3417 1.95947
1 1.0012 11.2008 7.35249
1 -0.00201297 11.4526 12.1102
1 3.24219 0.972145 5.9416
1 12.3777 2.21842 11.2433
1 8.36716 12.5104 4.99675
96
 Atoms. Timestep: 10000
2 0.503246 7.30431 4.84124
2 5.58345 0.259566 10.6519
2 11.3569 4.93058 4.4763
2 6.97641 10.1221 0.565633
2 11.3035 5.0643 7.90373
2 8.95744 4.27325 2.84523
2 0.799114 8.96382 7.72328
2 6.08176 8.63611 3.25062
2 10.9991 7.81407 6.21079
2 3.95507 9.9757 2.3734
2 1.00849 4.56195 6.33377
2 9.14491 1.79211 3.72477
2 2.46555 7.33838 6.66148
2 6.27471 0.379429 6.71523
2 9.14801 5.43327 5.53005
2 3.588 1.18318 13.0585
2 9.8826 6.85816 3.77731
2 6.25965 11.7006 2.33681
2 2.16539 6.11496 4.61399
2 5.94366 1.24353 12.5871
2 1.51011 6.44345 8.15446
2 7.43177 0.326513 5.45261
2 8.04221 7.73226 7.50527
2 4.53353 9.3281 4.30793
2 10.6008 9.96334 7.58693
2 1.73006 10.5322 3.29238
2 2.13078 3.49629 8.04641
2 8.10006 12.2439 0.325592
2 3.00381 9.6788 8.61359
2 9.86671 10.6248 0.843601
2 8.22121 5.50665 7.82378
2 6.78895 7.07288 5.04497
2 2.22164 3.79479 4.67831
2 7.8095 1.81133 1.72329
2 10.4113 8.93552 3.40334
2 7.15039 10.2171 9.87721
2 9.97852 2.05623 1.47936
2 4.13058 1.78282 9.88965
2 2.15779 9.27962 4.96143
2 9.40591 10.1643 9.27836
2 0.970917 11.4286 0.231387
2 1.03144 1.13176 5.84159
2 11.7487 2.95885 12.2101
2 9.737 0.776306 5.80808
2 2.63691 0.307592 2.13219
2 11.4133 1.53661 6.77483
2 11.3177 1.63665 10.7199
2 2.85386 11.5454 7.87295
2 2.67207 3.15257 0.828535
2 10.2221 0.399976 8.53662
2 11.9375 10.4759 2.3234
2 1.9543 1.19619 8.24337
2 1.9104 1.99616 3.1469
2 5.50333 10.969 7.93974
2 0.413045 0.884976 1.59151
2 9.5256 3.07385 7.90275
2 1.18735 11.4815 10.4252
2 3.83715 1.67322 7.23842
2 10.0794 4.17956 10.0083
2 -0.0902331 11.4968 8.10766
2 11.1393 11.1116 10.7283
2 9.45542 11.1527 3.73713
2 0.35377 3.89756 9.70789
2 3.75747 11.2233 5.47296
1 11.2445 8.44449 7.42135
1 5.85663 9.95085 2.02099
1 0.978963 4.74956 8.27204
1 8.94134 2.80287 2.4833
1 2.12588 8.17126 8.29483
1 8.5552 10.8281 12.7974
1 7.57561 6.29307 6.40332
1 5.49921 8.03613 4.66807
1 1.19397 4.96891 4.74875
1 6.94002 0.650436 1.19434
1 11.1095 7.71932 4.63573
1 5.68029 11.1166 9.7502
1 9.61439 5.21329 3.92928
1 4.66609 1.39245 11.63
1 2.09285 7.58975 4.96484
1 8.64375 10.2904 10.7264
1 10.3445 10.4534 2.48564
1 2.78225 10.9974 9.6614
1 1.94798 2.08159 4.71468
1 9.52401 4.76899 8.43194
1 3.16624 10.3029 4.06848
1 10.7278 11.0749 8.80101
1 11.4696 1.57658 0.640631
1 3.27469 2.36013 8.63898
1 2.65142 1.88646 1.72418
1 9.96534 1.69413 7.31534
1 1.14723 11.3325 2.04639
1 1.28825 12.2586 7.15755
1 12.1647 12.1578 11.6383
1 4.53825 11.9688 7.10398
1 11.2913 3.48376 10.6506
1 8.70415 0.441141 4.54992
96
 Atoms. Timestep: 12000
2 4.15341 4.43066 6.13684
2 5.09573 11.0854 10.5266
2 11.3486 5.35456 4.88734
2 7.49212 11.6044 3.43579
2 10.6148 3.9143 8.20864
2 8.56953 5.85615 1.41343
2 11.5432 7.54647 7.40411
2 5.81342 0.532944 4.98399
2 11.5818 8.33713 4.7433
2 4.08031 9.79392 4.31996
2 0.39166 3.90011 6.85823
2 6.71264 3.47197 1.14592
2 2.16468 6.77881 7.1684
2 7.66071 4.32849 9.05336
2 8.39163 6.12832 4.47057
2 4.01263 2.03589 11.9451
2 11.0064 6.40419 3.60652
2 5.00613 11.4673 1.19563
2 1.85648 5.10031 5.14584
2 9.1441 2.75101 9.22745
2 1.05903 5.47547 9.01415
2 7.216 2.41043 5.77718
2 9.7666 7.70802 5.9856
2 5.18453 9.56079 5.89195
2 11.1999 9.93461 7.7371
2 0.726501 8.82476 2.31699
2 2.18859 3.53306 9.25383
2 6.16403 1.31367 0.796304
2 1.44949 8.16707 9.27697
2 8.06329 11.1641 1.57655
2 9.09701 5.25193 7.30031
2 7.50904 7.60166 6.95442
2 1.63385 2.87836 4.45723
2 8.25569 3.22402 11.795
2 2.3327 8.03875 4.14459
2 7.96667 11.8685 9.92617
2 9.32655 3.28538 1.6133
2 2.86308 1.26469 9.70188
2 3.85757 7.10157 5.29349
2 6.59875 10.4561 8.03281
2 11.9855 10.4205 12.5736
2 2.91125 11.2151 5.35548
2 10.4084 3.04872 12.4752
2 9.13915 1.38642 5.16418
2 1.88123 10.4198 1.12691
2 11.2498 2.83465 5.25517
2 11.9677 1.34513 11.4902
2 3.54101 11.0172 9.01023
2 2.83768 0.0254479 12.2621
2 10.66 0.460411 6.28091
2 10.2766 0.379751 0.924015
2 3.51272 0.987219 7.49265
2 3.13784 12.5205 2.82169
2 6.64623 2.45259 10.7847
2 11.71 2.04589 3.22433
2 9.17805 2.95242 7.08515
2 2.04756 10.6137 10.7514
2 4.46876 3.17491 9.4702
2 9.67175 1.51506 11.3153
2 1.21667 11.754 7.70195
2 11.8104 10.922 9.47964
2 10.9059 10.5132 2.29169
2 12.0619 2.91493 9.94964
2 3.33365 9.64968 6.69962
1 11.0176 8.73992 6.45565
1 4.37434 11.5816 4.40715
1 0.587917 4.00041 8.50316
1 8.20488 4.13404 1.03425
1 1.08471 7.02314 8.31737
1 6.61974 11.8099 1.60476
1 8.61344 6.47827 6.18285
1 6.44549 8.85236 7.03912
1 0.652647 3.88124 5.40897
1 5.86418 2.59633 12.0785
1 0.584704 7.72908 3.4349
1 8.23895 1.82684 10.6839
1 9.3304 6.19274 3.1466
1 3.56705 11.5715 10.5072
1 3.08384 5.65519 6.00118
1 6.59429 11.1747 9.29518
1 9.68431 11.0128 1.3135
1 2.00451 9.0181 10.6266
1 1.62368 1.76235 3.13425
1 9.17761 4.12298 8.50719
1 3.5081 8.52585 5.1361
1 11.6868 11.4083 7.71852
1 10.4848 2.1943 1.57873
1 3.17717 2.26371 8.67054
1 3.42097 11.5071 1.37074
1 10.1585 1.96326 6.07676
1 0.364532 10.0758 1.69248
1 2.64029 11.1004 7.2945
1 12.3703 11.562 11.1895
1 6.3491 3.76843 9.59418
1 10.9269 2.61912 11.1932
1 7.66406 0.89468 4.88309
96
 Atoms. Timestep: 14000
2 11.371 6.3408 4.96115
2 4.67664 9.5326 11.6824
2 11.7734 4.82602 7.63684
2 8.22999 1.2006 12.4572
2 0.818868 2.60313 6.13557
2 8.63222 4.06873 3.79026
2 0.246369 6.79232 7.39973
2 7.35582 2.56115 4.42149
2 10.7901 8.76063 5.2281
2 3.14062 11.1364 3.68875
2 4.88186 11.6515 6.07335
2 6.88944 4.61154 1.81463
2 1.64317 6.08019 5.64183
2 6.82487 3.85274 8.46864
2 8.76705 6.64043 5.76384
2 3.90917 3.37517 1.32465
2 10.8995 4.28667 4.63877
2 5.26438 11.5558 1.67787
2 12.0429 7.37251 2.86159
2 7.05776 2.22671 10.837
2 1.84428 4.17458 8.24997
2 8.76182 9.72705 4.22402
2 9.57487 7.76635 8.07014
2 2.47395 9.94435 6.17718
2 11.4063 8.446 8.75448
2 10.5566 8.72442 2.32325
2 2.7016 2.06827 8.98034
2 6.5216 2.28292 1.48566
2 2.27661 6.60496 8.72774
2 9.78421 1.8534 2.18531
2 7.97509 5.62365 7.75496
2 7.05382 8.09652 8.36749
2 2.34877 2.94726 3.86855
2 9.273 3.91995 0.376726
2 11.6538 10.3035 4.02531
2 6.30229 10.8095 12.4302
2 9.96418 5.87652 1.89915
2 3.04422 11.2465 10.1848
2 1.66979 8.80545 4.10841
2 6.5541 9.6448 10.1376
2 11.2143 9.37548 11.375
2 5.18479 1.22255 5.29866
2 0.747472 6.91815 12.4295
2 7.74133 0.444802 4.31578
2 3.29501 1.60395 2.25398
2 0.418895 1.24344 2.98492
2 11.2109 11.2234 9.5167
2 0.790808 11.63 7.34044
2 3.44149 10.8307 1.01316
2 9.95379 11.3291 6.12123
2 11.4205 1.88144 12.1338
2 3.27768 12.2379 7.39666
2 6.19791 3.60235 6.33953
2 5.47415 3.71659 11.5001
2 1.15131 2.58019 1.27565
2 8.83906 4.01957 5.92003
2 1.84217 7.17799 11.6272
2 5.16458 1.53011 10.1192
2 10.0772 1.82958 10.0398
2 1.0624 11.3931 5.38519
2 1.62995 9.06004 9.88449
2 11.1904 11.6653 0.796463
2 12.0554 2.1304 8.92668
2 4.84688 9.38192 7.28343
1 11.1026 8.33793 7.09879
1 5.69401 2.75406 5.07994
1 1.33802 2.7079 7.88241
1 8.53107 4.62596 1.85982
1 1.85472 5.79485 7.39122
1 6.55952 0.554786 0.88854
1 8.19734 7.21666 7.496
1 5.76503 8.76552 8.90317
1 1.22662 1.72804 4.83973
1 5.5666 3.83796 1.06044
1 10.2624 9.28098 3.79876
1 8.64665 2.39595 11.565
1 9.62815 5.40088 4.97115
1 3.35076 10.4805 11.6059
1 0.925106 7.18221 4.54071
1 6.37635 9.43032 11.9401
1 11.3282 1.35989 1.52017
1 1.96221 7.55491 10.0888
1 2.29875 3.12235 2.20606
1 7.63781 4.1974 6.92617
1 1.7547 10.5076 4.38604
1 11.3697 10.6934 6.61161
1 11.4357 6.42308 1.77242
1 3.6201 0.827743 9.35378
1 3.97935 11.7134 2.5079
1 8.38487 10.964 5.33192
1 11.3823 9.65013 0.660904
1 3.69192 10.7186 6.85404
1 11.5718 9.62406 9.75586
1 6.08851 3.30142 10.0261
1 11.7599 1.08229 10.2782
1 8.53531 2.15662 3.42782
96
 Atoms. Timestep: 16000
2 0.869741 7.50756 5.06249
2 5.92158 8.82374 12.4084
2 2.30804 3.2503 10.8752
2 8.76901 1.51126 0.893659
2 2.62445 3.05452 7.69871
2 9.45905 3.41752 3.91099
2 1.14219 5.03092 6.97303
2 8.37417 4.08314 2.01682
2 11.6738 6.82055 8.26986
2 3.66868 8.52329 3.21689
2 1.08598 10.4494 4.59404
2 6.14657 5.76859 1.02432
2 3.39591 6.81074 4.38995
2 4.88464 5.51114 7.76071
2 8.15505 5.41699 5.26969
2 0.90649 3.83655 9.47983
2 9.30806 2.81498 6.48582
2 1.28376 10.2451 3.08108
2 1.43613 6.12844 3.10327
2 7.152 1.59175 11.1314
2 3.88385 3.5966 9.1747
2 10.8284 10.4367 5.38203
2 9.22458 7.40343 6.63691
2 4.18353 8.80812 6.36038
2 10.4738 8.72183 8.69274
2 11.8451 8.94931 1.84096
2 2.83516 1.57709 9.6532
2 4.13544 1.65837 0.844174
2 2.83756 6.4516 9.60011
2 10.3555 2.69711 1.61203
2 6.43544 6.30668 5.5217
2 6.05247 7.59439 8.45328
2 3.64765 2.21317 2.9499
2 7.62876 3.79382 11.7453
2 0.924839 9.6548 7.24872
2 6.40238 11.2038 12.2901
2 0.724324 5.37058 1.21385
2 3.53996 10.2645 11.1715
2 3.83496 4.26747 4.74998
2 7.62999 9.60128 10.0292
2 9.37084 10.0428 0.909511
2 4.53675 4.91826 1.80009
2 1.65376 7.3342 12.341
2 9.22223 0.97713 3.21735
2 3.21371 11.1729 2.35767
2 2.21779 4.60566 4.9588
2 11.7156 11.4071 8.69911
2 10.5169 1.96157 8.69992
2 2.81113 8.89427 0.948153
2 10.07 0.981454 5.90535
2 11.5583 0.913298 11.5002
2 2.99705 10.2 8.81221
2 3.28187 6.19829 6.53443
2 4.97551 4.96193 10.9502
2 1.71199 1.20184 1.64941
2 5.47546 3.98683 5.98881
2 11.2446 6.25013 10.5808
2 4.55011 0.942802 10.7303
2 9.86788 2.04314 10.5575
2 11.8083 2.87601 5.90461
2 0.94705 8.61474 9.87262
2 11.7318 11.323 0.981601
2 5.0165 6.89094 9.26809
2 5.84571 9.78531 7.73985
1 9.93494 7.01981 8.10217
1 4.42394 3.49971 3.32193
1 2.25997 3.20943 9.2707
1 7.68998 5.2548 1.12495
1 1.90184 6.40977 7.89064
1 5.50022 1.06101 11.9898
1 7.94556 6.69969 6.03765
1 6.82473 9.08512 8.76101
1 1.65041 3.65305 6.15771
1 4.6571 5.87085 12.5711
1 0.410644 9.24558 5.50055
1 8.55459 2.43479 11.3669
1 8.65314 3.84154 5.397
1 3.95817 8.89451 11.9267
1 1.87153 6.3633 4.65248
1 7.15914 9.8503 12.0322
1 11.4893 1.44618 0.839683
1 1.22761 7.32427 10.7367
1 3.22161 1.1472 1.87854
1 4.88187 5.47771 6.02599
1 4.28654 8.07505 4.65774
1 10.9686 2.19699 6.99483
1 1.49388 7.03293 1.74116
1 3.1756 11.4049 9.99312
1 2.40907 9.74626 2.2182
1 10.0943 11.7767 4.48364
1 10.8654 10.1241 1.58427
1 4.1195 9.88411 7.5836
1 11.7966 9.60502 8.63882
1 4.15098 5.53826 9.28606
1 10.8099 0.686803 10.045
1 9.10044 2.63672 2.39468
96
 Atoms. Timestep: 18000
2 11.0089 8.36832 5.06557
2 5.55239 10.1341 0.976061
2 1.02504 3.47943 6.00566
2 8.80741 2.651 1.83379
2 10.8397 1.65761 7.38059
2 9.1949 4.75992 3.74351
2 2.2416 5.40023 5.74203
2 9.83893 4.82384 1.34196
2 1.22601 6.08981 8.49914
2 4.41523 6.94819 4.416
2 1.86298 8.93416 5.98403
2 7.84983 6.67618 11.468
2 1.87174 7.12083 4.67699
2 4.21946 3.86462 11.6666
2 7.77958 6.21371 6.44193
2 0.791367 1.86261 9.2351
2 8.63259 3.38939 6.44727
2 11.215 11.6004 2.39916
2 11.8772 7.22968 3.15056
2 6.90222 2.00131 11.8678
2 2.0997 3.71756 8.21082
2 11.9591 11.3124 4.96134
2 9.77521 5.88933 8.51019
2 3.87046 7.99342 7.32414
2 11.1683 8.33412 9.08733
2 10.1886 9.45605 1.41546
2 2.56243 1.41544 7.09493
2 4.87899 1.4275 11.8876
2 3.23095 6.32557 11.4375
2 10.4665 5.37487 5.4193
2 6.96232 4.47684 5.56192
2 8.16949 7.26505 9.52012
2 3.39973 2.25021 1.70688
2 8.42578 4.47841 10.388
2 1.04749 10.1392 7.69018
2 7.23211 11.402 10.8022
2 9.78872 6.82768 1.34072
2 3.0309 9.08232 12.1696
2 4.7681 3.2253 4.25658
2 7.00871 8.57651 11.786
2 8.48716 10.9808 1.04795
2 5.30198 7.06454 11.2548
2 1.35976 7.33744 0.677083
2 10.4741 1.9612 3.20012
2 2.58208 1.15643 4.20074
2 11.8312 5.05849 3.9686
2 10.7499 10.7544 9.88411
2 8.64787 0.811084 8.38121
2 2.79095 10.9685 2.34445
2 9.41388 0.985764 5.88935
2 2.04975 11.3078 9.94533
2 4.39634 10.2459 8.89515
2 4.00193 4.8645 6.61242
2 5.63852 5.19466 10.1853
2 2.46127 2.12503 11.0058
2 6.53544 2.80941 9.93753
2 10.4971 6.15918 11.0024
2 4.56722 1.42528 9.895
2 9.18492 0.79067 10.9727
2 2.61593 3.52955 3.56636
2 1.53268 8.35986 10.1354
2 11.4736 11.5475 11.9831
2 7.16603 5.10551 8.0418
2 6.07535 7.86056 9.04269
1 10.9326 6.58282 9.2802
1 3.47521 2.33164 3.33871
1 1.26062 2.29379 7.3706
1 9.18788 5.6319 12.078
1 2.59355 5.53509 7.51463
1 6.2484 1.35853 10.5711
1 8.39817 6.46372 8.04331
1 6.74127 7.67738 10.446
1 1.72667 4.22398 4.71604
1 4.25139 5.31992 10.8033
1 11.9123 9.71504 5.9004
1 8.44344 1.76236 0.477124
1 8.44636 4.96631 5.32029
1 3.77099 9.79846 1.7397
1 11.3352 6.80748 4.66723
1 7.26798 10.2199 11.9393
1 0.817611 1.3299 10.7294
1 2.24847 7.70763 11.3933
1 3.59467 2.08584 12.0813
1 5.1613 4.05395 5.57674
1 3.48599 7.73447 5.69368
1 9.00024 2.095 7.30105
1 11.2292 7.86834 1.75824
1 3.46459 11.7033 8.57764
1 1.47449 11.2064 3.26735
1 10.4133 0.93967 4.7468
1 10.1633 10.9751 1.51844
1 4.97426 8.76474 8.29694
1 0.875953 10.0556 9.19084
1 6.95374 4.26936 9.47387
1 9.2879 11.3752 9.60575
1 9.92584 3.54732 2.73309
96
 Atoms. Timestep: 20000
2 1.2763 7.96615 4.98827
2 5.65081 9.67107 1.06122
2 1.59171 1.83593 5.84687
2 8.02013 2.12538 2.73298
2 11.1912 1.60719 8.00049
2 9.27344 4.29682 4.4911
2 2.8578 3.60741 6.36572
2 8.88822 4.32042 1.65307
2 3.54589 5.20539 8.31038
2 5.54685 8.68429 2.88506
2 3.03098 8.98365 5.8189
2 9.9821 6.08307 1.49323
2 7.56082 9.92409 3.51736
2 2.96956 4.28274 10.3821
2 8.03867 5.21779 7.0809
2 8.85196 2.57213 10.3674
2 9.7416 3.68273 6.44458
2 10.1048 10.4087 3.43817
2 0.313795 7.2042 3.23274
2 5.49735 1.25216 1.70371
2 4.88022 3.08396 8.32919
2 1.14363 11.4908 4.29375
2 9.00473 5.981 8.64458
2 5.83808 9.69386 5.45724
2 10.268 8.9475 9.59299
2 11.1666 8.67771 1.72817
2 2.96733 2.21836 8.31956
2 3.20338 2.0982 12.0063
2 0.605556 7.53091 9.92407
2 10.5355 6.29071 4.88776
2 7.34018 5.18707 4.8405
2 6.40572 7.09581 8.82404
2 3.27306 3.82346 1.34951
2 7.24883 4.89154 11.3344
2 0.331922 9.24597 7.40288
2 8.0195 10.429 10.614
2 1.68859 6.22454 1.4367
2 3.16578 8.0811 12.4236
2 5.34371 3.55698 3.22796
2 6.06185 8.46725 10.7615
2 8.06339 9.53926 0.850417
2 3.65348 7.46302 9.58159
2 1.25516 7.91974 11.8012
2 10.6468 2.03611 3.61365
2 3.65759 1.30656 3.31058
2 0.757603 4.65402 5.4055
2 2.01241 11.0629 8.576
2 8.4488 1.83559 8.22709
2 3.79184 10.4275 2.94228
2 9.84211 1.08028 5.68485
2 1.26003 11.1253 10.7042
2 5.25981 11.3011 7.32469
2 5.20654 4.5363 6.32206
2 5.09831 4.9656 10.6578
2 0.964477 2.71197 11.142
2 5.27852 2.37311 11.2439
2 9.67513 5.77542 11.1772
2 4.5666 0.806777 9.98363
2 7.07176 1.47221 11.8698
2 2.63816 3.79085 3.7961
2 1.44598 9.70417 10.2915
2 10.1191 11.6615 12.1845
2 6.63547 4.12577 9.2394
2 4.36964 8.96855 8.35337
1 9.70498 7.12674 10.1384
1 3.76058 3.0149 2.76432
1 1.60431 1.27696 7.65064
1 8.71133 5.23567 12.1586
1 4.02844 4.0652 7.26248
1 4.53489 0.96939 11.9197
1 7.29362 5.49589 8.57643
1 5.29075 8.08897 9.56449
1 1.87059 3.39261 5.1571
1 3.76893 5.684 9.73839
1 1.50239 9.06593 6.29308
1 6.89505 2.25538 1.72231
1 8.95418 5.36206 5.80878
1 4.20432 9.18752 1.85067
1 12.1353 6.45692 4.55703
1 7.03718 9.66341 11.3829
1 11.2872 1.32789 10.9643
1 2.34618 8.09322 10.5578
1 2.32489 3.50583 11.7294
1 5.80935 4.47536 4.59988
1 6.1249 9.92992 3.76389
1 9.78009 1.94025 7.01778
1 11.3906 7.03898 1.18465
1 4.67728 1.53027 8.60221
1 2.80356 11.1272 3.84177
1 10.5188 11.7951 4.44601
1 9.95473 10.102 1.63542
1 4.61573 9.47409 6.59946
1 11.4845 9.933 8.82642
1 6.29302 3.71687 10.9147
1 8.52079 0.974689 11.0257
1 9.47092 3.19398 3.24239
96
 Atoms. Timestep: 22000
2 10.2398 8.42484 4.67516
2 5.18484 10.6272 11.0497
2 12.1852 1.49372 6.78202
2 8.7098 1.71219 2.60282
2 7.58119 11.4285 7.48634
2 9.07442 3.44499 4.04578
2 1.96204 4.18465 6.72447
2 10.2611 2.91375 1.23404
2 3.05943 4.98461 8.91095
2 2.41179 8.39167 6.30768
2 4.41511 8.1456 6.84385
2 7.98717 3.3349 12.5506
2 4.73661 6.48203 4.86913
2 3.4519 5.07738 11.8843
2 8.54742 5.81016 6.37502
2 10.7103 1.90758 9.08732
2 8.38013 2.80356 5.87737
2 10.9501 11.7607 2.75814
2 11.5128 6.82649 2.61469
2 7.55933 11.9047 12.1671
2 4.01755 2.44237 7.63405
2 1.99129 11.8792 4.21984
2 9.93079 6.37521 9.10583
2 2.94268 9.5861 4.25789
2 10.3371 8.16561 9.8948
2 8.66363 7.77312 1.9721
2 2.24657 0.816759 8.77538
2 4.77366 3.73204 9.81448
2 11.9616 6.88826 11.3026
2 9.73227 6.01799 4.02
2 7.52758 4.60534 5.09797
2 8.67092 8.62077 7.85398
2 3.04648 3.97991 2.53294
2 7.80653 6.98175 11.4601
2 0.23897 8.66843 7.2513
2 6.94846 12.0734 10.0991
2 2.44436 7.11424 4.1501
2 3.04956 8.86059 12.3121
2 4.76762 4.00776 4.01121
2 7.82916 10.0139 9.69804
2 7.1248 9.70006 0.114464
2 3.20859 6.66949 10.5487
2 2.26471 6.81155 0.652865
2 11.2411 2.40275 3.88707
2 3.44391 1.62303 2.96413
2 11.013 3.97297 5.311
2 11.2829 10.4863 8.80008
2 6.53369 2.31456 8.19709
2 3.94115 10.1604 2.02231
2 11.5617 10.8765 5.32183
2 2.62786 12.0222 0.64775
2 4.37187 10.4665 8.15228
2 4.89897 4.24257 6.41175
2 5.71766 5.71759 10.8823
2 1.53357 2.95049 12.0431
2 6.89904 3.81256 10.9571
2 9.36432 5.56409 11.7118
2 4.733 1.41821 9.74108
2 8.21076 2.49552 10.1631
2 2.75143 2.29702 5.30207
2 1.89853 8.36704 10.0193
2 11.5734 1.74555 11.1749
2 8.08878 5.70748 9.39183
2 6.57529 9.17157 8.07873
1 10.1387 6.67896 10.5428
1 3.60373 2.92018 3.77122
1 11.8307 0.878216 8.44749
1 9.4488 4.02661 12.1916
1 3.3842 4.07991 7.52912
1 6.30973 2.36947 9.95884
1 8.64409 6.64886 8.03182
1 8.00124 10.0291 8.21702
1 1.01057 2.97568 5.93406
1 3.89069 5.16249 10.2751
1 11.3396 9.37203 5.6966
1 7.79811 1.71232 0.988063
1 9.11088 4.74196 5.24961
1 3.69399 10.5492 12.3139
1 10.052 7.48665 3.23101
1 6.78265 10.6548 10.9513
1 1.0145 1.27214 12.6348
1 2.26155 7.57475 11.3099
1 2.53863 4.09329 0.882188
1 5.56226 4.94932 5.03935
1 3.90026 8.0241 5.18253
1 7.24167 1.81305 6.88239
1 1.81613 6.827 2.47998
1 3.86296 12.2879 8.45335
1 3.28492 10.9462 3.27619
1 0.468921 0.71935 4.12682
1 8.0212 8.2245 0.504776
1 4.83178 9.01994 8.10665
1 11.6655 9.05932 8.88445
1 7.25813 5.60359 10.8124
1 10.0225 2.48908 10.4162
1 10.1027 2.86551 3.04973
96
 Atoms. Timestep: 24000