LAMMPS (2 Aug 2023 - Update 3)
units metal
boundary p p p
atom_style full
pair_style tersoff
neighbor 2.0 bin
neigh_modify delay 1




read_data SiO.data
Reading data file ...
  orthogonal box = (0 0 0) to (12.589463 12.589463 13.222096)
  1 by 1 by 1 MPI processor grid
WARNING: Atom style in data file atom-ID molecule-ID atom-type q x y z differs from currently defined atom style full (../read_data.cpp:621)
  reading atoms ...
  96 atoms
Finding 1-2 1-3 1-4 neighbors ...
  special bond factors lj:    0        0        0       
  special bond factors coul:  0        0        0       
     0 = max # of 1-2 neighbors
     0 = max # of 1-3 neighbors
     0 = max # of 1-4 neighbors
     1 = max # of special neighbors
  special bonds CPU = 0.000 seconds
  read_data CPU = 0.002 seconds
replicate 1 1 1
Replication is creating a 1x1x1 = 1 times larger system...
  orthogonal box = (0 0 0) to (12.589463 12.589463 13.222096)
  1 by 1 by 1 MPI processor grid
  96 atoms
Finding 1-2 1-3 1-4 neighbors ...
  special bond factors lj:    0        0        0       
  special bond factors coul:  0        0        0       
     0 = max # of 1-2 neighbors
     0 = max # of 1-3 neighbors
     0 = max # of 1-4 neighbors
     1 = max # of special neighbors
  special bonds CPU = 0.000 seconds
  replicate CPU = 0.001 seconds

pair_coeff * *  /root/Desktop/host/job1/SiO.tersoff Si O
Reading tersoff potential file /root/Desktop/host/job1/SiO.tersoff with DATE: 2010-08-16



group Si type 1
32 atoms in group Si
group O type 2
64 atoms in group O
#create_bonds many SiO SiO 1 0.5 10

dump dmp all xyz 2000 dump.lammpstrj



variable apot equal pe
# first number: number of steps to get current temp
# second number: calculate average n number of temp read above.
# third number: temp record (this must be larger than the one above )

variable atemp equal temp
fix temp_info all ave/time 10 200 2000 v_atemp file temperature.dat

#The cutoff used for pairwise computation (any pair style) and the
#associated neighbor list is the maximum cutoff that any compute
#can use. Atoms don't know any info about their neighbors
#further away than that.

# compute coord number
compute coor12 Si coord/atom cutoff 2.5 group O
compute coor11 Si coord/atom cutoff 2.5 group Si
compute coor22 O coord/atom cutoff 2.0 group O

compute sumcoor12 all reduce ave c_coor12
compute sumcoor11 all reduce ave c_coor11
compute sumcoor22 all reduce ave c_coor22


fix 12coord all ave/time  10 200 2000 c_sumcoor12 file Si-O_coord_number.dat
fix 11coord all ave/time  10 200 2000  c_sumcoor11 file Si-Si_coord_number.dat
fix 22coord all ave/time  10 200 2000  c_sumcoor22 file O-O_coord_number.dat




# unit cell information
variable avol equal vol
variable alx equal lx
variable aly equal ly
variable alz equal lz
fix cell_info all ave/time 10 200 2000 v_avol v_alx v_aly v_alz file cell_volume.dat


fix potential_info all ave/time 10 200 2000 v_apot file potential-energy.dat
thermo 1000



velocity all create 6000 4923176 mom yes rot no dist gaussian
fix npt1 all npt temp 6000 5000 0.1 iso 0 0  1
timestep 0.001
#run 500
run 80000
Neighbor list info ...
  update: every = 1 steps, delay = 1 steps, check = yes
  max neighbors/atom: 2000, page size: 100000
  master list distance cutoff = 4.8
  ghost atom cutoff = 4.8
  binsize = 2.4, bins = 6 6 6
  4 neighbor lists, perpetual/occasional/extra = 1 3 0
  (1) pair tersoff, perpetual
      attributes: full, newton on
      pair build: full/bin
      stencil: full/bin/3d
      bin: standard
  (2) compute coord/atom, occasional, copy from (1)
      attributes: full, newton on
      pair build: copy
      stencil: none
      bin: none
  (3) compute coord/atom, occasional, copy from (1)
      attributes: full, newton on
      pair build: copy
      stencil: none
      bin: none
  (4) compute coord/atom, occasional, copy from (1)
      attributes: full, newton on
      pair build: copy
      stencil: none
      bin: none
Per MPI rank memory allocation (min/avg/max) = 6.021 | 6.021 | 6.021 Mbytes
   Step          Temp          E_pair         E_mol          TotEng         Press          Volume    
         0   6000          -638.06385      0             -564.38556      73800.118      2095.6304    
      1000   5911.3789     -563.02134      0             -490.4313       48172.139      2227.0387    
      2000   5285.1518     -564.92639      0             -500.02624      22771.555      2235.6513    
      3000   5938.9402     -545.06901      0             -472.14052     -36272.549      2372.3355    
      4000   5696.1585     -535.7811       0             -465.8339       31674.099      2225.2684    
      5000   5010.8575     -551.76065      0             -490.22876     -12121.564      2136.7424    
      6000   6446.9796     -546.00692      0             -466.83986      19713.077      2062.8263    
      7000   6449.3651     -524.64753      0             -445.45117     -17518.233      2346.9255    
      8000   5657.1981     -527.11504      0             -457.64626     -39830.84       2138.9799    
      9000   5960.7707     -529.5757       0             -456.37914     -23632.876      2217.5137    
     10000   6482.3624     -547.30111      0             -467.69955      2269.0801      1892.6106    
     11000   5992.3629     -528.59573      0             -455.01123     -66392.447      1689.9408    
     12000   6253.3566     -532.7083       0             -455.91887      28035.925      1777.6529    
     13000   7117.7959     -527.7124       0             -440.3079      -2494.9943      1771.5064    
     14000   5875.7045     -528.66058      0             -456.50862     -47516.39       1689.5272    
     15000   6381.6991     -547.65752      0             -469.29208     -13482.952      1416.5594    
     16000   6140.3808     -514.88285      0             -439.48073      61727.393      1625.8377    
     17000   6323.9883     -541.91928      0             -464.26251      31346.151      1613.974     
     18000   4981.6175     -546.42067      0             -485.24784     -26023.341      1512.3917    
     19000   5873.0836     -555.14851      0             -483.02872      2078.7697      1544.802     
     20000   5094.1247     -535.49647      0             -472.94208     -4023.3461      1429.7555    
     21000   6508.1097     -539.20501      0             -459.28729      54667.568      1568.9523    
     22000   6317.0838     -549.78048      0             -472.2085      -22927.87       1551.5063    
     23000   4964.5696     -548.83995      0             -487.87645     -13368.269      1470.6458    
     24000   4921.7204     -546.95621      0             -486.5189       12141.678      1391.3661    
     25000   5137.4164     -557.86041      0             -494.7744      -29212.709      1448.7123    
     26000   4752.3937     -536.33722      0             -477.97919     -18106.811      1405.7254    
     27000   5324.7578     -532.8979       0             -467.51139     -54063.186      1714.079     
     28000   4437.7709     -539.97828      0             -485.48373     -42232.169      1686.19      
     29000   5444.7091     -545.69067      0             -478.8312       45086.001      1515.3781    
     30000   6477.4829     -536.82489      0             -457.28325      26783.541      1556.6579    
     31000   5317.7808     -547.86133      0             -482.5605      -5912.748       1608.0755    
     32000   6330.9846     -545.27238      0             -467.52971     -32772.979      1481.7433    
     33000   5403.5817     -548.86777      0             -482.51334      38616.932      1587.1192    
     34000   5483.125      -549.75411      0             -482.4229      -16204.047      1653.4452    
     35000   5908.6429     -543.45552      0             -470.89908     -12468.779      1668.4818    
     36000   4903.5793     -532.9745       0             -472.75995      10936.93       1581.8949    
     37000   5096.2466     -559.08238      0             -496.50194      7021.5297      1683.5227    
     38000   5848.5006     -551.30795      0             -479.49004      6205.6601      1586.2772    
     39000   4918.2593     -550.11479      0             -489.71997     -8807.6892      1706.344     
     40000   6354.7707     -547.16716      0             -469.1324      -22285.328      1571.3132    
     41000   5364.7398     -550.97468      0             -485.09721      3472.1712      1516.2092    
     42000   6283.7583     -550.15899      0             -472.99624      85898.678      1349.3559    
     43000   4843.9204     -538.46217      0             -478.98022     -25417.739      1503.4742    
     44000   4993.8945     -552.47696      0             -491.15336      24024.872      1557.2008    
     45000   4947.1216     -552.46993      0             -491.72069      20882.968      1544.0968    
     46000   5666.8066     -553.2619       0             -483.67513     -3470.1498      1615.1652    
     47000   5640.0333     -546.59285      0             -477.33485      20583.145      1475.9133    
     48000   5318.6079     -560.63148      0             -495.3205       38185.834      1477.9439    
     49000   5142.9092     -552.4214       0             -489.26795      12988.315      1419.5653    
     50000   5397.9405     -549.60408      0             -483.31891     -46894.561      1539.5371    
     51000   5467.0846     -560.82007      0             -493.68584     -50829.974      1566.053     
     52000   5396.5997     -540.90577      0             -474.63707     -18171.668      1490.6016    
     53000   5550.4799     -543.66461      0             -475.50631      36137.071      1545.6469    
     54000   4930.2451     -525.50944      0             -464.96745     -13471.247      1764.2631    
     55000   5310.5398     -554.56428      0             -489.35237     -23447.154      1655.0416    
     56000   4828.0678     -555.56153      0             -496.27424      17583.44       1818.6575    
     57000   6071.5143     -546.55887      0             -472.00242     -29045.167      1824.56      
     58000   5624.9764     -549.53269      0             -480.45959     -22595.318      1767.3354    
     59000   5265.0407     -556.52403      0             -491.87083     -9440.3506      1853.2067    
     60000   5102.3719     -543.65377      0             -480.9981       24212.699      1737.7798    
     61000   4814.8504     -536.80109      0             -477.67611      10493.388      1813.9639    
     62000   5272.7418     -549.56202      0             -484.81426      3446.7301      1663.0079    
     63000   5210.5127     -559.94905      0             -495.96544      10290.513      1694.4459    
     64000   5282.4167     -565.29992      0             -500.43336      10269.88       1616.4312    
     65000   4581.1558     -552.13816      0             -495.88288     -19538.824      1691.5054    
     66000   4772.6677     -557.58972      0             -498.98273     -17598.983      1669.9919    
     67000   4992.6222     -556.20324      0             -494.89526     -22293.169      1691.7981    
     68000   4700.2261     -571.59803      0             -513.8806       38174.831      1557.9163    
     69000   4377.9217     -543.70878      0             -489.94916     -24042.315      1503.0197    
     70000   5024.2758     -561.85101      0             -500.15434      15540.354      1538.0904    
     71000   5637.4672     -571.62371      0             -502.39723     -19007.515      1567.2596    
     72000   4423.7325     -552.10654      0             -497.78438     -39799.933      1447.4908    
     73000   4839.2046     -545.2104       0             -485.78635     -21828.34       1635.4534    
     74000   5769.9163     -548.09982      0             -477.2469       2928.5868      1804.6704    
     75000   4958.1161     -552.93638      0             -492.05213     -50199.872      1693.9283    
     76000   5257.3489     -553.62417      0             -489.06543     -2801.6193      1573.3924    
     77000   5059.8252     -555.92543      0             -493.79223      28178.004      1684.2457    
     78000   4960.3117     -553.19955      0             -492.28834     -32968.049      1678.2104    
     79000   5602.3355     -558.85085      0             -490.05578     -3172.106       1691.6687    
     80000   5372.3975     -555.80923      0             -489.83772     -37430.073      1758.6146    
Loop time of 6.74883 on 1 procs for 80000 steps with 96 atoms

Performance: 1024.178 ns/day, 0.023 hours/ns, 11853.907 timesteps/s, 1.138 Matom-step/s
99.4% CPU use with 1 MPI tasks x no OpenMP threads

MPI task timing breakdown:
Section |  min time  |  avg time  |  max time  |%varavg| %total
---------------------------------------------------------------
Pair    | 5.6073     | 5.6073     | 5.6073     |   0.0 | 83.09
Bond    | 0.0025929  | 0.0025929  | 0.0025929  |   0.0 |  0.04
Neigh   | 0.45242    | 0.45242    | 0.45242    |   0.0 |  6.70
Comm    | 0.20727    | 0.20727    | 0.20727    |   0.0 |  3.07
Output  | 0.0092215  | 0.0092215  | 0.0092215  |   0.0 |  0.14
Modify  | 0.43348    | 0.43348    | 0.43348    |   0.0 |  6.42
Other   |            | 0.03652    |            |       |  0.54

Nlocal:             96 ave          96 max          96 min
Histogram: 1 0 0 0 0 0 0 0 0 0
Nghost:            494 ave         494 max         494 min
Histogram: 1 0 0 0 0 0 0 0 0 0
Neighs:              0 ave           0 max           0 min
Histogram: 1 0 0 0 0 0 0 0 0 0
FullNghs:         2384 ave        2384 max        2384 min
Histogram: 1 0 0 0 0 0 0 0 0 0

Total # of neighbors = 2384
Ave neighs/atom = 24.833333
Ave special neighs/atom = 0
Neighbor list builds = 3743
Dangerous builds = 0

fix npt1 all npt temp 5000 4000 0.1 iso 0 0 1
run 80000
Per MPI rank memory allocation (min/avg/max) = 8.549 | 8.549 | 8.549 Mbytes
   Step          Temp          E_pair         E_mol          TotEng         Press          Volume    
     80000   5372.3975     -555.80923      0             -489.83772     -37430.073      1758.6146    
     81000   4477.2529     -561.68934      0             -506.70995      22827.749      1652.6429    
     82000   4788.3442     -556.66534      0             -497.86584      42837.405      1675.0021    
     83000   4653.8408     -558.75829      0             -501.61046     -38889.306      1797.4667    
     84000   4823.2579     -546.30892      0             -487.08069     -7333.3351      1623.1661    
     85000   5323.7357     -547.20986      0             -481.83591     -8224.4052      1572.9386    
     86000   4962.1206     -555.59286      0             -494.65944     -9613.9312      1547.4786    
     87000   4954.3566     -555.39572      0             -494.55763     -22467.41       1539.6333    
     88000   5498.2272     -554.4012       0             -486.88454     -10743.176      1545.9784    
     89000   5288.141      -548.23445      0             -483.29759      7853.8734      1560.7153    
     90000   5272.0594     -535.85495      0             -471.11557      296.8824       1838.3146    
     91000   4868.7614     -544.65912      0             -484.87212     -22362.229      1617.7117    
     92000   5205.9166     -551.32245      0             -487.39529     -19879.831      1687.8709    
     93000   4840.1691     -554.02137      0             -494.58548      5417.7133      1617.5166    
     94000   4867.97       -558.58726      0             -498.80998      6746.6503      1681.328     
     95000   4935.1146     -558.18079      0             -497.579       -29882.401      1710.178     
     96000   4326.9883     -546.13485      0             -493.00067     -25298.23       1648.5872    
     97000   4193.3562     -560.32555      0             -508.83233      39517.225      1515.8863    
     98000   4988.0834     -567.73788      0             -506.48564      50500.229      1446.1054    
     99000   4650.6386     -564.97221      0             -507.8637      -13770.764      1489.6099    
    100000   4950.0636     -560.40537      0             -499.62        -22217.855      1534.1422    
    101000   4538.0569     -563.11587      0             -507.38983     -29446.24       1467.0148    
    102000   4331.9154     -552.84051      0             -499.64583     -618.87992      1482.1345    
    103000   4806.8817     -565.1072       0             -506.08007     -3812.6099      1448.62      
    104000   4479.0099     -567.76579      0             -512.76483      16483.439      1413.3862    
    105000   4723.068      -568.79871      0             -510.80078     -25988.864      1546.789     
    106000   5554.8127     -570.26296      0             -502.05145      1454.1511      1447.5764    
    107000   4411.1742     -559.49832      0             -505.33036     -24795.317      1471.8956    
    108000   4290.7387     -571.4255       0             -518.73646      7695.8023      1320.0777    
    109000   4891.2573     -567.87209      0             -507.80885      16661.744      1342.4946    
    110000   4482.6552     -562.97339      0             -507.92766     -16165.366      1344.5154    
    111000   5260.5772     -553.93608      0             -489.33769     -5392.1519      1340.1319    
    112000   4495.1379     -559.47248      0             -504.27347     -12795.814      1426.8851    
    113000   3940.0025     -569.15035      0             -520.76825     -29840.284      1409.2648    
    114000   4787.1538     -543.12517      0             -484.34029     -28352.667      1430.2032    
    115000   4315.7504     -553.98159      0             -500.98541      7994.6765      1461.9998    
    116000   5058.3559     -561.14838      0             -499.03322     -18645.657      1456.4009    
    117000   3994.1344     -558.1554       0             -509.10857     -20692.028      1550.9963    
    118000   4295.3324     -556.05268      0             -503.30723     -17337.872      1570.7683    
    119000   4290.7459     -563.05298      0             -510.36385     -43393.4        1559.7279    
    120000   3565.4387     -571.48606      0             -527.70349     -38118.58       1588.9276    
    121000   4322.7322     -556.34576      0             -503.26385     -32458.464      1610.18      
    122000   4207.4961     -561.78236      0             -510.11551     -39086.237      1575.3708    
    123000   4619.598      -561.85397      0             -505.12663     -18414.484      1574.307     
    124000   4257.7798     -552.14208      0             -499.85776     -53154.93       1548.3461    
    125000   4321.5606     -565.77328      0             -512.70575     -7668.6618      1626.6818    
    126000   3988.3209     -566.44071      0             -517.46527      3245.9435      1578.7008    
    127000   4759.4213     -558.82708      0             -500.38275      15939.377      1677.2345    
    128000   4361.8933     -567.47606      0             -513.91326     -33319.202      1732.2526    
    129000   4374.3047     -571.0736       0             -517.35839     -11913.43       1752.7139    
    130000   5054.7648     -563.9827       0             -501.91163     -57797.895      1827.8532    
    131000   4503.1016     -564.33499      0             -509.03819      8525.5715      1681.3276    
    132000   3762.8996     -564.88259      0             -518.67526     -1376.7512      1548.7896    
    133000   4553.8558     -582.09343      0             -526.17338      11021.105      1560.8796    
    134000   4240.4713     -569.14553      0             -517.07375      5915.443       1639.4825    
    135000   4447.3775     -562.47708      0             -507.86456      597.99791      1632.9591    
    136000   3634.1466     -564.97175      0             -520.34547     -20113.727      1572.2241    
    137000   3830.2531     -560.00476      0             -512.97035      9451.2465      1657.4786    
    138000   4421.3848     -575.30743      0             -521.01409     -5971.0791      1575.4158    
    139000   4156.7741     -557.63359      0             -506.5896      -35146.683      1641.2276    
    140000   4411.2279     -566.41412      0             -512.2455      -43116.961      1702.042     
    141000   3826.2698     -565.03874      0             -518.05324      20683.856      1583.9936    
    142000   4037.056      -570.25099      0             -520.6771       10856.074      1689.6644    
    143000   4231.8313     -559.86492      0             -507.89924     -33801.692      1753.537     
    144000   3902.3246     -569.39687      0             -521.47744     -11557.824      1611.1165    
    145000   4583.4813     -568.63581      0             -512.35197      26873.09       1555.937     
    146000   3900.4572     -571.33533      0             -523.43883      38104.341      1540.9057    
    147000   4142.3987     -559.86635      0             -508.99888     -44448.728      1727.3724    
    148000   4317.5353     -571.12096      0             -518.10287      620.10558      1596.5095    
    149000   3915.6016     -572.83601      0             -524.75354     -11063.525      1521.0424    
    150000   3931.9138     -573.6207       0             -525.33792      52864.874      1426.1838    
    151000   4682.9149     -573.09793      0             -515.59307      19224.273      1475.6002    
    152000   3982.216      -576.56904      0             -527.66857     -21177.535      1543.4539    
    153000   3903.6441     -579.00877      0             -531.07314     -40970.184      1536.0711    
    154000   4757.512      -566.03086      0             -507.60997      59142.341      1425.8417    
    155000   3845.504      -572.52193      0             -525.30024      34689.317      1406.5071    
    156000   3674.9592     -570.7779       0             -525.65045      21156.426      1477.3019    
    157000   3516.316      -573.70804      0             -530.52869      3473.2017      1452.1884    
    158000   4545.9029     -573.19032      0             -517.36793     -5685.8247      1467.6301    
    159000   4190.8824     -567.51583      0             -516.053       -44962.41       1546.2337    
    160000   3868.058      -571.87996      0             -524.38131     -25737.592      1500.8764    
Loop time of 6.6829 on 1 procs for 80000 steps with 96 atoms

Performance: 1034.281 ns/day, 0.023 hours/ns, 11970.847 timesteps/s, 1.149 Matom-step/s
99.3% CPU use with 1 MPI tasks x no OpenMP threads

MPI task timing breakdown:
Section |  min time  |  avg time  |  max time  |%varavg| %total
---------------------------------------------------------------
Pair    | 5.5909     | 5.5909     | 5.5909     |   0.0 | 83.66
Bond    | 0.0024743  | 0.0024743  | 0.0024743  |   0.0 |  0.04
Neigh   | 0.40654    | 0.40654    | 0.40654    |   0.0 |  6.08
Comm    | 0.20496    | 0.20496    | 0.20496    |   0.0 |  3.07
Output  | 0.012563   | 0.012563   | 0.012563   |   0.0 |  0.19
Modify  | 0.43081    | 0.43081    | 0.43081    |   0.0 |  6.45
Other   |            | 0.03463    |            |       |  0.52

Nlocal:             96 ave          96 max          96 min
Histogram: 1 0 0 0 0 0 0 0 0 0
Nghost:            497 ave         497 max         497 min
Histogram: 1 0 0 0 0 0 0 0 0 0
Neighs:              0 ave           0 max           0 min
Histogram: 1 0 0 0 0 0 0 0 0 0
FullNghs:         2798 ave        2798 max        2798 min
Histogram: 1 0 0 0 0 0 0 0 0 0

Total # of neighbors = 2798
Ave neighs/atom = 29.145833
Ave special neighs/atom = 0
Neighbor list builds = 3306
Dangerous builds = 0

fix npt1 all npt temp 4000 4000 0.1 iso 0 0 1
run 80000
Per MPI rank memory allocation (min/avg/max) = 8.549 | 8.549 | 8.549 Mbytes
   Step          Temp          E_pair         E_mol          TotEng         Press          Volume    
    160000   3868.058      -571.87996      0             -524.38131     -25737.592      1500.8764    
    161000   3709.0309     -581.30473      0             -535.7589      -50673.84       1519.5475    
    162000   3506.0969     -571.36568      0             -528.31182     -10411.093      1592.4362    
    163000   4405.8587     -567.38931      0             -513.28663     -53658.735      1485.7253    
    164000   3824.1487     -577.03345      0             -530.074       -6352.6947      1486.4079    
    165000   4557.6359     -574.58383      0             -518.61736     -59167.096      1486.7141    
    166000   3908.7261     -577.58405      0             -529.58601     -9276.9114      1500.5741    
    167000   4399.4872     -575.44138      0             -521.41694      53690.876      1510.5582    
    168000   3572.8376     -568.13937      0             -524.26594     -10885.815      1520.2865    
    169000   4735.7771     -568.50266      0             -510.34868     -16840.825      1543.8681    
    170000   3918.9843     -573.60698      0             -525.48298     -19177.368      1603.419     
    171000   4592.5111     -562.73729      0             -506.34257     -42416.232      1715.1025    
    172000   4219.2154     -564.65677      0             -512.84602      91.156353      1660.3733    
    173000   3702.0388     -561.57736      0             -516.11739     -34912.822      1544.0006    
    174000   3827.5977     -580.63357      0             -533.63177      21755.611      1504.8523    
    175000   4034.2966     -578.04537      0             -528.50536      2342.6983      1547.5181    
    176000   4504.7355     -564.8058       0             -509.48894     -15758.047      1517.0122    
    177000   3938.7202     -573.7899       0             -525.42355      22594.763      1518.3145    
    178000   4247.3333     -571.62823      0             -519.47219     -14796.623      1544.8342    
    179000   3756.2879     -568.54288      0             -522.41674     -35374.756      1556.0652    
    180000   3945.4139     -578.07845      0             -529.6299       6053.9734      1523.3305    
    181000   3747.317      -581.53781      0             -535.52183     -9514.6978      1505.7021    
    182000   4121.4909     -577.04972      0             -526.43899     -1611.26        1422.495     
    183000   4678.4856     -577.14552      0             -519.69505      225.29543      1459.0568    
    184000   3823.7463     -581.57111      0             -534.6166       32803.497      1429.3113    
    185000   3883.1122     -578.58126      0             -530.89776      33472.291      1439.8195    
    186000   4314.4359     -574.05774      0             -521.0777       3682.1724      1480.8051    
    187000   3675.4371     -566.98082      0             -521.8475       8774.0882      1504.1793    
    188000   3851.7608     -582.11292      0             -534.8144      -7612.1717      1541.4326    
    189000   4073.9754     -569.15511      0             -519.12786     -18169.525      1530.8837    
    190000   4062.6977     -579.95942      0             -530.07065     -32992.919      1596.3553    
    191000   4255.8545     -574.41109      0             -522.15041     -16693.882      1527.1653    
    192000   3705.3226     -575.38671      0             -529.88641     -19770.068      1525.7904    
    193000   4177.4612     -567.19208      0             -515.89405      21175.514      1634.0859    
    194000   4021.0312     -572.75683      0             -523.37972      26382.525      1575.0535    
    195000   3948.1785     -573.96508      0             -525.48258     -39091.271      1558.2077    
    196000   4056.0653     -571.07501      0             -521.26768      4766.6241      1575.5965    
    197000   4309.4252     -570.08226      0             -517.16376     -26602.295      1588.7568    
    198000   4153.2495     -565.17241      0             -514.17169      16849.612      1609.6468    
    199000   3634.0835     -573.0091       0             -528.38359     -5547.8509      1542.5028    
    200000   4372.8031     -572.71772      0             -519.02095      3241.6639      1559.6921    
    201000   4088.8076     -577.33416      0             -527.12477     -10240.728      1598.8105    
    202000   4090.6384     -563.30562      0             -513.07376      17582.394      1570.7365    
    203000   4064.9843     -576.72362      0             -526.80678     -16071.451      1522.2962    
    204000   4186.7347     -574.66959      0             -523.25768     -29848.165      1576.4012    
    205000   3451.4348     -571.15922      0             -528.77659     -6090.2481      1531.896     
    206000   3753.832      -574.95205      0             -528.85607      31185.923      1508.0727    
    207000   4026.1395     -570.7126       0             -521.27276     -12808.356      1464.5293    
    208000   3936.9155     -580.0212       0             -531.67701     -10933.533      1431.6229    
    209000   3745.464      -571.04974      0             -525.05652     -12671.854      1415.2572    
    210000   4343.049      -570.34819      0             -517.01679      343.85098      1407.9743    
    211000   4323.0713     -577.90599      0             -524.81991      22736.251      1464.0645    
    212000   3715.9102     -578.51067      0             -532.88036     -11310.034      1520.9521    
    213000   3880.1492     -573.21493      0             -525.56781      26336.461      1523.172     
    214000   4115.4057     -569.97347      0             -519.43746     -5925.1002      1525.3697    
    215000   3835.6119     -575.0477       0             -527.94748     -8451.8787      1522.0504    
    216000   4497.3498     -582.23537      0             -527.00921      6771.8758      1522.1658    
    217000   3743.6243     -561.66907      0             -515.69843     -6394.1148      1440.6642    
    218000   3767.631      -568.79722      0             -522.53179     -6062.5586      1506.7617    
    219000   3836.5387     -574.14857      0             -527.03697      19384.002      1528.6445    
    220000   3912.3767     -575.33904      0             -527.29618      21494.446      1506.5112    
    221000   3703.2238     -578.55331      0             -533.07878      62188.154      1509.5462    
    222000   4337.2773     -577.07914      0             -523.81861      43834.273      1481.7039    
    223000   3649.9296     -576.00972      0             -531.18963      17988.602      1502.1816    
    224000   3811.3146     -572.75722      0             -525.95536     -5032.3955      1532.4167    
    225000   3561.5808     -568.26592      0             -524.53073      867.64151      1517.5393    
    226000   3912.6622     -572.64339      0             -524.59702     -4575.1399      1512.9149    
    227000   3553.5595     -583.62557      0             -539.98887      23792.52       1559.4743    
    228000   3819.8684     -572.83293      0             -525.92604     -30459.891      1632.7671    
    229000   4177.4075     -576.70125      0             -525.40388     -47465.013      1630.7407    
    230000   3533.6737     -569.20523      0             -525.81273     -4964.271       1461.2495    
    231000   3936.3879     -577.9995       0             -529.66178      8107.6801      1457.7475    
    232000   4690.3258     -573.75024      0             -516.15438     -43619.719      1481.3495    
    233000   4307.54       -572.36434      0             -519.46899      15477.794      1452.5115    
    234000   3816.5203     -575.71341      0             -528.84763      30837.292      1498.0232    
    235000   3378.4156     -579.60011      0             -538.11413     -20380.055      1472.71      
    236000   4473.1021     -581.76997      0             -526.84155      39167.414      1397.2453    
    237000   3663.7187     -584.48754      0             -539.49812     -9692.6547      1402.325     
    238000   4123.6213     -570.11633      0             -519.47945      743.45211      1531.3387    
    239000   4522.1661     -576.22658      0             -520.69567      18077.579      1439.2637    
    240000   3714.5283     -574.39584      0             -528.7825      -36425.999      1467.9953    
Loop time of 6.74242 on 1 procs for 80000 steps with 96 atoms

Performance: 1025.151 ns/day, 0.023 hours/ns, 11865.175 timesteps/s, 1.139 Matom-step/s
99.0% CPU use with 1 MPI tasks x no OpenMP threads

MPI task timing breakdown:
Section |  min time  |  avg time  |  max time  |%varavg| %total
---------------------------------------------------------------
Pair    | 5.6573     | 5.6573     | 5.6573     |   0.0 | 83.91
Bond    | 0.0026119  | 0.0026119  | 0.0026119  |   0.0 |  0.04
Neigh   | 0.38777    | 0.38777    | 0.38777    |   0.0 |  5.75
Comm    | 0.2089     | 0.2089     | 0.2089     |   0.0 |  3.10
Output  | 0.010683   | 0.010683   | 0.010683   |   0.0 |  0.16
Modify  | 0.43988    | 0.43988    | 0.43988    |   0.0 |  6.52
Other   |            | 0.03523    |            |       |  0.52

Nlocal:             96 ave          96 max          96 min
Histogram: 1 0 0 0 0 0 0 0 0 0
Nghost:            538 ave         538 max         538 min
Histogram: 1 0 0 0 0 0 0 0 0 0
Neighs:              0 ave           0 max           0 min
Histogram: 1 0 0 0 0 0 0 0 0 0
FullNghs:         2916 ave        2916 max        2916 min
Histogram: 1 0 0 0 0 0 0 0 0 0

Total # of neighbors = 2916
Ave neighs/atom = 30.375
Ave special neighs/atom = 0
Neighbor list builds = 3066
Dangerous builds = 0

fix npt1 all npt temp 4000 3000 0.1 iso 0 0  1
run 80000
Per MPI rank memory allocation (min/avg/max) = 8.549 | 8.549 | 8.549 Mbytes
   Step          Temp          E_pair         E_mol          TotEng         Press          Volume    
    240000   3714.5283     -574.39584      0             -528.7825      -36425.999      1467.9953    
    241000   4057.6709     -576.93363      0             -527.10659      2198.7801      1491.3843    
    242000   3825.3495     -581.36437      0             -534.39017     -24685.838      1525.7984    
    243000   3756.6876     -570.81619      0             -524.68514     -62102.829      1426.3576    
    244000   3681.2461     -579.8155       0             -534.61085     -7185.1102      1406.8381    
    245000   3937.0113     -571.88862      0             -523.54325      28570.167      1398.5294    
    246000   3455.79       -581.4392       0             -539.00308     -9820.7007      1497.1184    
    247000   4052.5147     -578.05647      0             -528.29275      29721.083      1451.8737    
    248000   3926.6398     -565.30237      0             -517.08436      55313.234      1471.1683    
    249000   3627.1087     -579.62384      0             -535.08398      62043.764      1396.5923    
    250000   3816.2967     -576.65624      0             -529.79321      6970.406       1421.323     
    251000   3773.1251     -581.27569      0             -534.94279      3654.9952      1441.9313    
    252000   4918.8483     -578.93532      0             -518.53327      24937.871      1440.8488    
    253000   4146.943      -582.83148      0             -531.90821     -2481.8559      1456.9949    
    254000   3858.2582     -580.94817      0             -533.56987     -23158.282      1472.0682    
    255000   3877.8764     -570.68958      0             -523.07036     -30534.875      1421.3302    
    256000   3925.2162     -577.89121      0             -529.69068     -11906.153      1462.851     
    257000   4198.735      -579.15958      0             -527.60031     -38974.856      1453.5508    
    258000   4066.1484     -575.94752      0             -526.01639      35754.322      1458.3159    
    259000   3542.7369     -574.79357      0             -531.28977     -3433.9067      1480.3618    
    260000   3225.4139     -578.25906      0             -538.6519      -18684.114      1407.0644    
    261000   3559.7962     -578.57971      0             -534.86643      24964.523      1389.7928    
    262000   4177.1138     -570.66605      0             -519.37229     -2398.5394      1418.4144    
    263000   3606.7971     -577.06399      0             -532.77355     -13168.598      1402.3537    
    264000   3586.2136     -571.92853      0             -527.89085     -28404.249      1424.4925    
    265000   3449.4421     -571.32159      0             -528.96343     -35794.463      1421.6282    
    266000   3509.3019     -578.10738      0             -535.01416     -1921.4728      1476.6922    
    267000   3058.5714     -578.11842      0             -540.56004      9979.1083      1448.9013    
    268000   3542.259      -575.8469       0             -532.34898     -29250.183      1441.9187    
    269000   4045.22       -582.73435      0             -533.0602       59357.647      1423.7053    
    270000   3270.0848     -577.95734      0             -537.80163      19382.421      1473.9658    
    271000   3774.9002     -578.49575      0             -532.14106     -23795.176      1482.1804    
    272000   3915.1286     -572.84159      0             -524.76493      15944.187      1499.8985    
    273000   3843.7065     -579.12797      0             -531.92835      13360.283      1486.6931    
    274000   3300.3379     -572.63609      0             -532.10888     -6493.51        1539.3243    
    275000   3903.5312     -574.9999       0             -527.06565     -32119.181      1469.3245    
    276000   3752.1454     -577.23608      0             -531.16081     -5834.6974      1443.0572    
    277000   3579.4143     -583.49551      0             -539.54133      29759.758      1461.8996    
    278000   3185.633      -579.88931      0             -540.77065     -20837.538      1471.3919    
    279000   4261.8734     -579.99174      0             -527.65715      2551.8896      1523.3426    
    280000   3794.389      -581.96997      0             -535.37596     -8927.4778      1450.2028    
    281000   2729.7017     -582.9202       0             -549.40025     -8337.7654      1427.0831    
    282000   3695.2015     -576.79129      0             -531.41527      11658.199      1408.1357    
    283000   3614.6189     -586.65558      0             -542.26909      13097.814      1393.3795    
    284000   3671.4931     -585.1971       0             -540.11222      14073.227      1441.4408    
    285000   3521.024      -573.64288      0             -530.40571      42238.317      1430.618     
    286000   3227.9013     -578.35989      0             -538.72219      8536.0249      1489.7695    
    287000   3617.0441     -578.0648       0             -533.64853     -26189.444      1546.6236    
    288000   3161.8305     -580.32355      0             -541.49718     -46696.869      1583.3012    
    289000   3239.1959     -576.02777      0             -536.25138      7868.1587      1495.6957    
    290000   3630.6862     -585.53287      0             -540.94909     -9246.6735      1491.6361    
    291000   3183.356      -585.23827      0             -546.14756      4039.4645      1525.5872    
    292000   3344.3902     -587.57656      0             -546.50841     -8477.5931      1456.8952    
    293000   3446.8073     -588.5305       0             -546.2047       19719.211      1459.0738    
    294000   3451.7351     -574.13248      0             -531.74617     -138.29339      1427.9846    
    295000   3333.8636     -583.35233      0             -542.41344      14030.354      1422.351     
    296000   3207.2018     -585.95677      0             -546.57325      18712.127      1456.4552    
    297000   3004.3618     -586.30018      0             -549.40748     -19624.854      1491.0994    
    298000   3604.6246     -583.5992       0             -539.33544      8797.9915      1474.268     
    299000   3234.1322     -586.62382      0             -546.9096      -15965.534      1507.5268    
    300000   3402.7636     -583.32605      0             -541.54109      37088.21       1445.0728    
    301000   3549.8139     -579.84603      0             -536.25533     -554.68949      1484.5903    
    302000   3299.2843     -583.6197       0             -543.10543      3357.686       1459.626     
    303000   3686.5195     -580.85011      0             -535.5807      -26716.436      1535.8427    
    304000   3238.33       -588.90409      0             -549.13833      3237.4433      1465.9973    
    305000   3129.1034     -586.46039      0             -548.0359      -9692.2029      1462.0351    
    306000   3701.079      -588.32433      0             -542.87614      9792.09        1452.3146    
    307000   3241.8712     -588.36635      0             -548.5571       3779.3247      1469.587     
    308000   3262.5504     -590.01062      0             -549.94744      2833.5355      1450.33      
    309000   2953.3138     -590.76942      0             -554.50357      7486.3548      1447.4324    
    310000   2899.0318     -588.10049      0             -552.50121      21129.462      1475.0603    
    311000   3495.0211     -583.06756      0             -540.1497      -9915.3324      1487.0159    
    312000   2833.5775     -590.18235      0             -555.38683     -25652.718      1474.8439    
    313000   3232.1089     -597.34596      0             -557.65659     -2289.0704      1427.1491    
    314000   3360.131      -591.85702      0             -550.59557      26862.011      1447.3816    
    315000   2960.7272     -588.67892      0             -552.32204      34720.631      1492.4639    
    316000   3350.5248     -588.83092      0             -547.68744      33944.555      1436.9296    
    317000   3198.522      -587.40603      0             -548.1291      -29044.145      1485.6028    
    318000   3091.4826     -587.39942      0             -549.4369      -27071.219      1506.5236    
    319000   3015.4932     -591.21624      0             -554.18685     -49196.391      1555.8749    
    320000   2918.0493     -594.91866      0             -559.08584     -19902.135      1569.3631    
Loop time of 6.73756 on 1 procs for 80000 steps with 96 atoms

Performance: 1025.890 ns/day, 0.023 hours/ns, 11873.729 timesteps/s, 1.140 Matom-step/s
99.3% CPU use with 1 MPI tasks x no OpenMP threads

MPI task timing breakdown:
Section |  min time  |  avg time  |  max time  |%varavg| %total
---------------------------------------------------------------
Pair    | 5.6639     | 5.6639     | 5.6639     |   0.0 | 84.06
Bond    | 0.0026169  | 0.0026169  | 0.0026169  |   0.0 |  0.04
Neigh   | 0.36806    | 0.36806    | 0.36806    |   0.0 |  5.46
Comm    | 0.21365    | 0.21365    | 0.21365    |   0.0 |  3.17
Output  | 0.011644   | 0.011644   | 0.011644   |   0.0 |  0.17
Modify  | 0.44199    | 0.44199    | 0.44199    |   0.0 |  6.56
Other   |            | 0.03569    |            |       |  0.53

Nlocal:             96 ave          96 max          96 min
Histogram: 1 0 0 0 0 0 0 0 0 0
Nghost:            511 ave         511 max         511 min
Histogram: 1 0 0 0 0 0 0 0 0 0
Neighs:              0 ave           0 max           0 min
Histogram: 1 0 0 0 0 0 0 0 0 0
FullNghs:         2672 ave        2672 max        2672 min
Histogram: 1 0 0 0 0 0 0 0 0 0

Total # of neighbors = 2672
Ave neighs/atom = 27.833333
Ave special neighs/atom = 0
Neighbor list builds = 2833
Dangerous builds = 0

fix npt1 all npt temp 3000 3000 0.1 iso 0 0 1
run 80000
Per MPI rank memory allocation (min/avg/max) = 8.549 | 8.549 | 8.549 Mbytes
   Step          Temp          E_pair         E_mol          TotEng         Press          Volume    
    320000   2918.0493     -594.91866      0             -559.08584     -19902.135      1569.3631    
    321000   3182.6489     -591.08558      0             -552.00356     -20779.117      1520.7724    
    322000   2955.1242     -590.69832      0             -554.41024     -11845.729      1499.4004    
    323000   3243.7579     -596.87947      0             -557.04705      25111.231      1433.783     
    324000   2694.1768     -590.9498       0             -557.86608     -20711.371      1446.9569    
    325000   2951.2385     -585.45608      0             -549.21571      9259.9595      1511.9416    
    326000   3123.5885     -590.26383      0             -551.90705     -1793.4984      1560.7856    
    327000   2853.1669     -584.31687      0             -549.2808      -26897.826      1543.9477    
    328000   2718.1313     -591.95228      0             -558.57441      4624.9258      1491.1878    
    329000   3094.3497     -591.29757      0             -553.29984      5030.9548      1532.2411    
    330000   2770.6842     -588.85415      0             -554.83094      1786.9735      1515.8721    
    331000   2818.4431     -584.73942      0             -550.12975      25684.739      1502.0002    
    332000   2858.0279     -592.79811      0             -557.70235      4670.8519      1521.648     
    333000   3218.3338     -591.06098      0             -551.54076     -17515.554      1568.5952    
    334000   2915.1068     -588.05318      0             -552.2565       9676.2831      1525.75      
    335000   2874.6374     -593.78906      0             -558.48933      1389.37        1517.6214    
    336000   3157.4221     -589.53276      0             -550.76052      26942.034      1470.4494    
    337000   3186.5503     -590.59592      0             -551.466        19612.506      1456.6265    
    338000   3003.9515     -592.06024      0             -555.17258      21571.173      1415.53      
    339000   3372.5686     -595.42298      0             -554.0088       15634.509      1441.8101    
    340000   3305.534      -589.13355      0             -548.54254      11904.699      1515.053     
    341000   2965.2138     -589.6966       0             -553.28462     -10842.857      1473.2271    
    342000   2957.5671     -589.7098       0             -553.39173      6122.8974      1458.8757    
    343000   2810.9963     -589.30666      0             -554.78843      3619.8592      1480.995     
    344000   2641.4111     -589.08148      0             -556.64571     -19443.486      1479.8063    
    345000   3399.388      -586.37221      0             -544.6287       29588.807      1437.2711    
    346000   2713.636      -590.49496      0             -557.17228     -8698.0701      1500.7903    
    347000   2919.6531     -589.67744      0             -553.82493      10206.554      1484.7771    
    348000   3410.7587     -584.06261      0             -542.17947     -13071.789      1444.3766    
    349000   3043.8697     -598.63632      0             -561.25847     -9753.4686      1504.3684    
    350000   3242.8862     -592.63781      0             -552.8161      -30466.642      1541.2676    
    351000   3353.7055     -596.56859      0             -555.38605      6287.3299      1492.0964    
    352000   2793.5072     -592.7327       0             -558.42923      22236.611      1470.2607    
    353000   2873.507      -590.63812      0             -555.35227     -30902.797      1510.3889    
    354000   2736.8602     -588.77425      0             -555.16639     -2565.2479      1501.3392    
    355000   2742.0039     -594.07346      0             -560.40243     -20650.241      1466.3223    
    356000   2837.1027     -585.72602      0             -550.88721      14511.281      1459.9703    
    357000   2591.5895     -590.25139      0             -558.42741     -28250.614      1513.6981    
    358000   3178.0385     -592.4671       0             -553.44169     -15409.875      1532.7156    
    359000   2949.709      -596.26664      0             -560.04506      28668.019      1472.0897    
    360000   2958.3654     -590.5465       0             -554.21862      73518.317      1451.2468    
    361000   3134.8188     -586.45368      0             -547.95901     -15945.358      1507.5904    
    362000   2850.5787     -587.25389      0             -552.2496       9581.5398      1497.0363    
    363000   3322.2741     -591.89323      0             -551.09666      32275.016      1432.0268    
    364000   2899.9953     -591.04739      0             -555.43628      54133.983      1425.4929    
    365000   2862.111      -590.79041      0             -555.64451      10490.638      1478.8424    
    366000   3222.8658     -585.9753       0             -546.39943     -626.86916      1536.4141    
    367000   3011.7236     -590.36583      0             -553.38272     -34434.269      1509.0223    
    368000   3164.423      -590.79475      0             -551.93654     -6309.4504      1517.0624    
    369000   3214.1442     -589.91222      0             -550.44345      2085.6522      1511.4291    
    370000   3416.2668     -593.46415      0             -551.51337      1050.4731      1503.5705    
    371000   3083.4005     -589.38642      0             -551.52314      49258.471      1409.6709    
    372000   2772.4494     -594.06231      0             -560.01742      5988.274       1454.3644    
    373000   3218.3566     -590.64089      0             -551.12039      6362.9648      1448.8021    
    374000   3220.3137     -596.40356      0             -556.85903      35860.068      1573.0583    
    375000   3041.8551     -586.14399      0             -548.79088     -16774.463      1540.4971    
    376000   2998.4366     -592.55409      0             -555.73415     -16014.395      1478.9084    
    377000   2853.3448     -587.46377      0             -552.42552      37114.887      1456.5371    
    378000   2670.842      -587.36813      0             -554.57095     -1513.9852      1478.8539    
    379000   2779.5035     -588.75611      0             -554.62461     -15153.69       1455.99      
    380000   3434.3701     -590.98372      0             -548.81064     -27086.902      1488.0888    
    381000   2895.3085     -585.22268      0             -549.66912      15538.568      1545.7706    
    382000   3149.71       -591.34422      0             -552.66668      15008.547      1496.7879    
    383000   2687.259      -591.24235      0             -558.24358     -20679.401      1525.3304    
    384000   2957.3796     -591.00199      0             -554.68621     -10858.039      1506.0975    
    385000   2541.9952     -584.66078      0             -553.44581      3272.4421      1472.6878    
    386000   2616.0881     -589.33615      0             -557.21134     -17137.03       1474.4374    
    387000   3513.0894     -589.74073      0             -546.601        11688.276      1480.7329    
    388000   2845.5552     -591.97164      0             -557.02904      5648.5908      1513.7716    
    389000   3285.6308     -592.07441      0             -551.72781     -4094.5714      1490.2609    
    390000   3004.101      -590.50472      0             -553.61522      13987.92       1497.8555    
    391000   2765.3697     -591.86687      0             -557.90892     -3133.7403      1509.1546    
    392000   2971.7213     -584.06946      0             -547.57758      15475.24       1537.191     
    393000   3173.9597     -586.39377      0             -547.41845     -49023.841      1579.3573    
    394000   3325.0594     -592.06335      0             -551.23258      1577.6812      1498.2725    
    395000   3154.1707     -593.26139      0             -554.52908      43572.285      1469.3918    
    396000   3035.8241     -586.76028      0             -549.48123      11943.811      1469.6527    
    397000   3080.5365     -594.45868      0             -556.63057      17942.141      1445.9573    
    398000   3222.6778     -589.6015       0             -550.02794     -28222.373      1484.3658    
    399000   2592.5501     -589.06386      0             -557.22808     -18102.575      1516.6191    
    400000   3220.5254     -590.45941      0             -550.91228     -8518.5785      1480.0066    
Loop time of 6.28966 on 1 procs for 80000 steps with 96 atoms

Performance: 1098.946 ns/day, 0.022 hours/ns, 12719.281 timesteps/s, 1.221 Matom-step/s
99.2% CPU use with 1 MPI tasks x no OpenMP threads

MPI task timing breakdown:
Section |  min time  |  avg time  |  max time  |%varavg| %total
---------------------------------------------------------------
Pair    | 5.2766     | 5.2766     | 5.2766     |   0.0 | 83.89
Bond    | 0.0025255  | 0.0025255  | 0.0025255  |   0.0 |  0.04
Neigh   | 0.3252     | 0.3252     | 0.3252     |   0.0 |  5.17
Comm    | 0.20802    | 0.20802    | 0.20802    |   0.0 |  3.31
Output  | 0.0099847  | 0.0099847  | 0.0099847  |   0.0 |  0.16
Modify  | 0.4332     | 0.4332     | 0.4332     |   0.0 |  6.89
Other   |            | 0.03414    |            |       |  0.54

Nlocal:             96 ave          96 max          96 min
Histogram: 1 0 0 0 0 0 0 0 0 0
Nghost:            536 ave         536 max         536 min
Histogram: 1 0 0 0 0 0 0 0 0 0
Neighs:              0 ave           0 max           0 min
Histogram: 1 0 0 0 0 0 0 0 0 0
FullNghs:         2842 ave        2842 max        2842 min
Histogram: 1 0 0 0 0 0 0 0 0 0

Total # of neighbors = 2842
Ave neighs/atom = 29.604167
Ave special neighs/atom = 0
Neighbor list builds = 2548
Dangerous builds = 0

fix npt1 all npt temp 3000 2000 0.1 iso 0 0 1
run 80000
Per MPI rank memory allocation (min/avg/max) = 8.549 | 8.549 | 8.549 Mbytes
   Step          Temp          E_pair         E_mol          TotEng         Press          Volume    
    400000   3220.5254     -590.45941      0             -550.91228     -8518.5785      1480.0066    
    401000   2950.099      -597.85535      0             -561.62898      8887.0797      1497.0439    
    402000   3052.7656     -590.31889      0             -552.83181     -40524.56       1559.9399    
    403000   2983.5118     -589.92239      0             -553.28572     -28748.825      1563.4941    
    404000   2836.5071     -593.58534      0             -558.75384      5203.6213      1457.6691    
    405000   3134.0803     -587.70835      0             -549.22274      1030.4847      1470.8049    
    406000   2580.8565     -588.034        0             -556.34182      7476.7614      1481.9269    
    407000   3034.455      -584.26193      0             -546.99969      13227.973      1524.1223    
    408000   2787.5559     -592.42261      0             -558.19222      13069.125      1531.4893    
    409000   2871.2952     -593.58541      0             -558.32673     -15806.857      1515.5517    
    410000   3194.6581     -593.0353       0             -553.80582      6436.3503      1484.2328    
    411000   2996.5714     -598.01902      0             -561.22198      1544.2709      1441.7158    
    412000   3068.1242     -585.4403       0             -547.76461      3265.0621      1501.6816    
    413000   3155.1132     -595.43915      0             -556.69527     -145.78153      1487.6172    
    414000   2879.6584     -595.88833      0             -560.52695     -8328.4648      1443.61      
    415000   2734.2801     -586.25612      0             -552.67995     -2834.1323      1500.0816    
    416000   2740.3157     -596.219        0             -562.56871      6653.8066      1480.3304    
    417000   3189.6099     -590.53798      0             -551.37048      18451.582      1464.3019    
    418000   2628.0981     -591.32209      0             -559.0498      -24290.28       1539.8712    
    419000   2917.7864     -588.21016      0             -552.38058     -3563.4437      1569.503     
    420000   2620.7038     -594.93335      0             -562.75186     -17591.236      1530.7918    
    421000   2580.5656     -588.69774      0             -557.00913     -6023.3649      1473.1034    
    422000   2359.3166     -592.31407      0             -563.34234      8766.5535      1519.6071    
    423000   2827.2588     -590.94686      0             -556.22893     -12549.217      1532.1044    
    424000   2344.7328     -594.27674      0             -565.48409     -4076.0477      1497.0325    
    425000   2988.759      -593.49305      0             -556.79195     -23986.61       1489.9018    
    426000   2586.137      -591.29641      0             -559.53939      49688.344      1447.8104    
    427000   2379.0357     -592.87479      0             -563.66091     -8307.9123      1457.0789    
    428000   2766.5978     -591.41852      0             -557.44549     -17008.111      1476.0564    
    429000   2441.4928     -590.71451      0             -560.73368     -38069.539      1534.7651    
    430000   2915.9011     -592.5535       0             -556.74707      5259.3913      1433.7863    
    431000   2777.6649     -591.35306      0             -557.24413      6638.0648      1440.8441    
    432000   2332.0721     -594.85767      0             -566.22049     -13585.986      1493.2087    
    433000   2956.6063     -597.31379      0             -561.00751     -5867.1367      1466.999     
    434000   2296.2517     -594.44092      0             -566.24361     -24441.722      1454.5551    
    435000   2431.9201     -594.17949      0             -564.3162       6718.7777      1420.1796    
    436000   2732.4963     -598.47316      0             -564.91889      9275.7482      1446.8275    
    437000   2466.8014     -599.34882      0             -569.0572       196.28432      1430.2941    
    438000   2440.4953     -593.54683      0             -563.57824      1839.774       1441.099     
    439000   2215.6431     -597.30732      0             -570.09985     -39847.31       1504.588     
    440000   2817.311      -598.11582      0             -563.52004      5017.999       1461.9638    
    441000   2288.0524     -600.60066      0             -572.50403     -815.34597      1415.5488    
    442000   2709.5436     -597.85027      0             -564.57785     -137.85005      1415.1615    
    443000   2503.9861     -596.16982      0             -565.42159      7863.9108      1477.2074    
    444000   2460.0595     -592.18676      0             -561.97793     -6302.4343      1517.583     
    445000   2156.1184     -597.12157      0             -570.64505     -32490.862      1465.8097    
    446000   2203.0744     -593.22673      0             -566.17361      23072.528      1393.7102    
    447000   2226.5999     -599.46643      0             -572.12442      9565.1385      1441.2317    
    448000   2541.4965     -598.07955      0             -566.8707       4379.0983      1461.9892    
    449000   2345.0308     -597.39375      0             -568.59744     -19936.518      1452.4461    
    450000   2104.7719     -593.06017      0             -567.21417     -21632.016      1454.4042    
    451000   2246.4225     -601.29844      0             -573.71301      3821.7382      1452.7925    
    452000   2260.9006     -596.63654      0             -568.87333     -22278.693      1450.6631    
    453000   2311.1723     -593.94138      0             -565.56085     -11855.781      1448.2489    
    454000   2438.0095     -600.04107      0             -570.10301      4966.5298      1492.254     
    455000   2045.8614     -598.89087      0             -573.76828     -403.69692      1455.8482    
    456000   2133.4898     -596.22372      0             -570.02507      15587.019      1407.4659    
    457000   2495.6117     -596.26963      0             -565.62423      32007.653      1379.8615    
    458000   2346.5254     -600.87561      0             -572.06095     -14680.394      1454.1785    
    459000   2195.8505     -598.51723      0             -571.55282     -5423.8633      1449.201     
    460000   2531.6076     -600.86479      0             -569.77737      9506.8987      1423.836     
    461000   2249.3327     -602.74696      0             -575.12579      4260.9121      1393.0568    
    462000   2305.4068     -600.81981      0             -572.51008      27798.61       1409.2841    
    463000   1996.0213     -598.82097      0             -574.3104      -9670.0539      1439.2438    
    464000   2130.0718     -600.662        0             -574.50533      15719.293      1429.0021    
    465000   2441.0057     -602.76528      0             -572.79043      20544.312      1393.4009    
    466000   2444.8946     -600.52919      0             -570.50658     -419.33425      1424.7203    
    467000   2056.2384     -604.61484      0             -579.36482     -17808.819      1458.0846    
    468000   2183.4593     -599.70942      0             -572.89717      3582.8598      1433.2625    
    469000   1966.2305     -604.05973      0             -579.91498      25338.043      1407.588     
    470000   2218.6555     -600.3998       0             -573.15534      8238.083       1388.4466    
    471000   1992.3571     -604.17055      0             -579.70498      35161.208      1405.0876    
    472000   2043.0288     -600.2461       0             -575.15829      11402.05       1437.5467    
    473000   2390.9686     -596.10611      0             -566.7457       9523.0532      1472.289     
    474000   1789.9703     -600.52047      0             -578.54015     -13063.412      1505.3552    
    475000   2327.913      -598.79681      0             -570.2107      -3010.308       1459.7689    
    476000   2119.2692     -603.33167      0             -577.30765     -10685.537      1468.7626    
    477000   2123.6859     -598.97374      0             -572.89548     -7237.3678      1434.3806    
    478000   1985.6376     -603.92141      0             -579.53835     -1828.7961      1429.9257    
    479000   1939.5819     -598.86135      0             -575.04384      40826.798      1439.0005    
    480000   1718.9671     -603.2719       0             -582.16347     -1080.2523      1480.958     
Loop time of 6.56749 on 1 procs for 80000 steps with 96 atoms

Performance: 1052.457 ns/day, 0.023 hours/ns, 12181.218 timesteps/s, 1.169 Matom-step/s
98.7% CPU use with 1 MPI tasks x no OpenMP threads

MPI task timing breakdown:
Section |  min time  |  avg time  |  max time  |%varavg| %total
---------------------------------------------------------------
Pair    | 5.562      | 5.562      | 5.562      |   0.0 | 84.69
Bond    | 0.0026623  | 0.0026623  | 0.0026623  |   0.0 |  0.04
Neigh   | 0.28722    | 0.28722    | 0.28722    |   0.0 |  4.37
Comm    | 0.2089     | 0.2089     | 0.2089     |   0.0 |  3.18
Output  | 0.0093917  | 0.0093917  | 0.0093917  |   0.0 |  0.14
Modify  | 0.46249    | 0.46249    | 0.46249    |   0.0 |  7.04
Other   |            | 0.03485    |            |       |  0.53

Nlocal:             96 ave          96 max          96 min
Histogram: 1 0 0 0 0 0 0 0 0 0
Nghost:            529 ave         529 max         529 min
Histogram: 1 0 0 0 0 0 0 0 0 0
Neighs:              0 ave           0 max           0 min
Histogram: 1 0 0 0 0 0 0 0 0 0
FullNghs:         2818 ave        2818 max        2818 min
Histogram: 1 0 0 0 0 0 0 0 0 0

Total # of neighbors = 2818
Ave neighs/atom = 29.354167
Ave special neighs/atom = 0
Neighbor list builds = 2216
Dangerous builds = 0

fix npt1 all npt temp 2000 2000 0.1 iso 0 0 1
run 80000
Per MPI rank memory allocation (min/avg/max) = 8.549 | 8.549 | 8.549 Mbytes
   Step          Temp          E_pair         E_mol          TotEng         Press          Volume    
    480000   1718.9671     -603.2719       0             -582.16347     -1080.2523      1480.958     
    481000   2209.8926     -603.04075      0             -575.90391      30483.288      1452.5761    
    482000   1979.6268     -600.50251      0             -576.19326     -31672.932      1532.2077    
    483000   1887.3397     -603.89362      0             -580.71763     -15788.413      1482.7882    
    484000   1958.4911     -602.34154      0             -578.29183     -5896.9562      1461.4401    
    485000   2019.418      -605.63408      0             -580.83621     -4426.5968      1514.1686    
    486000   2230.1607     -602.49692      0             -575.11119     -1615.2904      1426.7304    
    487000   1818.4353     -603.5618       0             -581.23194     -3386.5335      1475.8614    
    488000   1928.738      -602.70456      0             -579.02021     -22980.292      1514.6679    
    489000   1893.6774     -604.57798      0             -581.32416     -2885.1837      1461.3885    
    490000   1904.3437     -601.18739      0             -577.80259      21739.369      1475.6402    
    491000   2194.2651     -600.19147      0             -573.24652     -18887.437      1535.6975    
    492000   2112.6754     -597.4536       0             -571.51056     -6597.818       1469.8437    
    493000   1689.1535     -600.89988      0             -580.15756     -25106.103      1455.1934    
    494000   1919.048      -596.61191      0             -573.04655      13367.105      1372.8651    
    495000   2011.2344     -603.25866      0             -578.56128      24854.665      1373.394     
    496000   2156.8008     -601.66866      0             -575.18376     -22677.628      1477.9428    
    497000   2028.0709     -599.62542      0             -574.72129     -25409.383      1486.6609    
    498000   1975.4731     -603.9007       0             -579.64245      22311.429      1398.5092    
    499000   2028.2181     -604.78456      0             -579.87862     -17965.637      1412.7894    
    500000   1924.8993     -600.70589      0             -577.06868      14482.856      1442.3992    
    501000   2306.9248     -598.90533      0             -570.57695      15247.135      1450.0196    
    502000   1857.6934     -602.99395      0             -580.18201     -1534.4969      1473.9235    
    503000   2112.1646     -600.88907      0             -574.9523       29845.079      1379.0592    
    504000   1879.5876     -601.40621      0             -578.32541     -860.3409       1422.3652    
    505000   2277.4315     -600.68473      0             -572.71852     -24413.945      1433.0761    
    506000   2095.9145     -600.15803      0             -574.4208       28677.826      1428.6926    
    507000   2012.3031     -601.14225      0             -576.43175     -8691.8769      1468.0685    
    508000   2222.1472     -600.58722      0             -573.29989      26298.359      1398.2922    
    509000   1797.5133     -602.84256      0             -580.76961      7489.6261      1428.9574    
    510000   1998.9067     -602.3067       0             -577.7607       4003.963       1436.7491    
    511000   2034.1141     -598.84371      0             -573.86537      9443.3694      1440.6364    
    512000   1685.0033     -599.5794       0             -578.88804     -12873.132      1435.9304    
    513000   2016.4851     -602.13677      0             -577.37491      15215.749      1439.3001    
    514000   1961.6105     -601.05685      0             -576.96884     -2752.6949      1438.5315    
    515000   1831.5067     -605.8502       0             -583.35982     -9220.4877      1452.3022    
    516000   2058.8085     -602.48549      0             -577.20391      8162.0013      1401.3962    
    517000   1859.5416     -598.70961      0             -575.87497     -17088.481      1462.245     
    518000   2064.6765     -601.56766      0             -576.21402      10318.743      1416.0487    
    519000   2010.9044     -600.06162      0             -575.36829      25960.785      1434.2916    
    520000   1997.3606     -600.87241      0             -576.34539     -41267.108      1514.6566    
    521000   2327.9932     -601.72179      0             -573.1347       5751.8652      1432.3126    
    522000   2013.6522     -601.59975      0             -576.87267      6042.2205      1421.7445    
    523000   1906.7395     -602.48527      0             -579.07105      16335.597      1447.7671    
    524000   1961.9673     -602.4621       0             -578.36971      9511.7444      1448.498     
    525000   2054.165      -601.00022      0             -575.77566     -3828.4858      1394.8869    
    526000   1979.6553     -599.8967       0             -575.5871      -12618.99       1459.3857    
    527000   2088.2699     -599.32222      0             -573.67887      22434.576      1378.4484    
    528000   2184.323      -607.49054      0             -580.66768     -22181.063      1440.867     
    529000   1878.9368     -599.93696      0             -576.86415     -7948.6241      1439.3885    
    530000   1966.843      -601.383        0             -577.23073      577.54609      1415.4214    
    531000   1715.9377     -600.30868      0             -579.23745     -17796.903      1446.0338    
    532000   2108.834      -603.78984      0             -577.89396      14031.261      1410.4636    
    533000   1746.9562     -598.39633      0             -576.9442      -15832.065      1433.9192    
    534000   2020.7493     -603.7095       0             -578.89528      30302.622      1403.2993    
    535000   2179.8673     -602.92759      0             -576.15945     -20696.805      1428.9043    
    536000   2246.3749     -603.16364      0             -575.5788      -7952.1448      1437.6112    
    537000   1960.1522     -602.32021      0             -578.2501       15078.491      1412.0411    
    538000   1579.8063     -601.74177      0             -582.3422      -3139.0798      1431.1251    
    539000   2038.319      -602.21205      0             -577.18208     -7988.8456      1396.8315    
    540000   1921.4247     -604.06962      0             -580.47508     -15883.317      1482.3171    
    541000   2195.4811     -601.20636      0             -574.24648      25965.663      1417.3667    
    542000   1725.3274     -602.20779      0             -581.02126     -12686.769      1458.1995    
    543000   2003.6481     -600.38826      0             -575.78403     -48758.925      1511.1884    
    544000   2155.278      -597.12748      0             -570.66128     -4847.9155      1442.723     
    545000   1972.9038     -600.85045      0             -576.62375      17354.163      1388.4113    
    546000   2216.5918     -597.72238      0             -570.50326     -9204.1115      1464.1806    
    547000   1779.9609     -601.13794      0             -579.28053     -21573.957      1465.1993    
    548000   1864.6905     -600.56667      0             -577.6688      -10447.759      1436.7197    
    549000   2249.1409     -601.65777      0             -574.03896      44479.411      1422.173     
    550000   2060.4776     -600.7451       0             -575.44303     -11813.283      1429.812     
    551000   2201.7092     -596.77941      0             -569.74305     -10586.742      1449.2984    
    552000   1742.4892     -600.49712      0             -579.09985     -20709.422      1458.7809    
    553000   2183.8986     -597.56559      0             -570.74794     -7684.5015      1440.0304    
    554000   1896.2935     -601.41525      0             -578.12931     -20023.586      1479.9873    
    555000   1959.3859     -597.9318       0             -573.8711       16247.295      1405.3374    
    556000   2062.4453     -601.10677      0             -575.78053     -29523.231      1461.5416    
    557000   1951.4005     -600.55287      0             -576.59023     -2979.9123      1428.5631    
    558000   1827.3147     -600.90699      0             -578.46809      22536.669      1452.8975    
    559000   1928.4999     -601.6137       0             -577.93227     -9149.5715      1427.9894    
    560000   1843.9064     -601.53656      0             -578.89392      1998.9659      1417.2143    
Loop time of 6.34527 on 1 procs for 80000 steps with 96 atoms

Performance: 1089.316 ns/day, 0.022 hours/ns, 12607.823 timesteps/s, 1.210 Matom-step/s
99.2% CPU use with 1 MPI tasks x no OpenMP threads

MPI task timing breakdown:
Section |  min time  |  avg time  |  max time  |%varavg| %total
---------------------------------------------------------------
Pair    | 5.4107     | 5.4107     | 5.4107     |   0.0 | 85.27
Bond    | 0.0025653  | 0.0025653  | 0.0025653  |   0.0 |  0.04
Neigh   | 0.24184    | 0.24184    | 0.24184    |   0.0 |  3.81
Comm    | 0.20479    | 0.20479    | 0.20479    |   0.0 |  3.23
Output  | 0.0099182  | 0.0099182  | 0.0099182  |   0.0 |  0.16
Modify  | 0.44288    | 0.44288    | 0.44288    |   0.0 |  6.98
Other   |            | 0.03258    |            |       |  0.51

Nlocal:             96 ave          96 max          96 min
Histogram: 1 0 0 0 0 0 0 0 0 0
Nghost:            525 ave         525 max         525 min
Histogram: 1 0 0 0 0 0 0 0 0 0
Neighs:              0 ave           0 max           0 min
Histogram: 1 0 0 0 0 0 0 0 0 0
FullNghs:         2906 ave        2906 max        2906 min
Histogram: 1 0 0 0 0 0 0 0 0 0

Total # of neighbors = 2906
Ave neighs/atom = 30.270833
Ave special neighs/atom = 0
Neighbor list builds = 1877
Dangerous builds = 0

fix npt1 all npt temp 2000 1000 0.1 iso 0 0 1
run 80000
Per MPI rank memory allocation (min/avg/max) = 8.549 | 8.549 | 8.549 Mbytes
   Step          Temp          E_pair         E_mol          TotEng         Press          Volume    
    560000   1843.9064     -601.53656      0             -578.89392      1998.9659      1417.2143    
    561000   2166.9528     -601.12213      0             -574.51257      27965.501      1414.196     
    562000   1993.3744     -598.34508      0             -573.86701      23806.272      1430.8563    
    563000   1852.8052     -601.41257      0             -578.66065      1416.5384      1417.9463    
    564000   1777.0516     -602.96134      0             -581.13966      5461.7485      1419.7168    
    565000   1861.6907     -600.16672      0             -577.30569     -25151.148      1437.1421    
    566000   2178.0174     -602.29687      0             -575.55144     -1261.7189      1435.7103    
    567000   1925.905      -605.36402      0             -581.71446     -15661.56       1447.601     
    568000   1856.4511     -601.91659      0             -579.1199       19890.912      1399.0951    
    569000   1909.5504     -606.01918      0             -582.57045     -12126.043      1431.6595    
    570000   2097.6687     -603.26938      0             -577.51061      19230.941      1411.8673    
    571000   1847.8133     -600.99451      0             -578.30389      2181.2404      1437.8618    
    572000   1731.9866     -606.65333      0             -585.38503      117.77737      1443.2471    
    573000   2065.8102     -606.77387      0             -581.40631      41309.88       1378.1841    
    574000   1889.3441     -604.61282      0             -581.41222     -6153.6923      1412.1883    
    575000   1695.219      -602.40269      0             -581.58589     -29750.413      1464.9307    
    576000   1901.1285     -602.24093      0             -578.89562      13182.672      1418.5173    
    577000   1722.9286     -605.11544      0             -583.95837      13979.7        1396.3858    
    578000   1701.386      -604.40021      0             -583.50768     -10707.399      1474.8413    
    579000   1765.785      -606.0897       0             -584.40637     -17753.247      1452.536     
    580000   1900.2203     -604.90816      0             -581.574        52963.301      1402.3336    
    581000   1876.2584     -609.59111      0             -586.55119      6864.3192      1400.1788    
    582000   1736.496      -604.77688      0             -583.4532       15468.245      1400.1126    
    583000   1784.4773     -604.03097      0             -582.1181       7640.9826      1461.5794    
    584000   1784.1675     -606.66         0             -584.75094     -20082.494      1431.7775    
    585000   1848.7548     -610.92453      0             -588.22235      2478.2954      1409.959     
    586000   1528.9153     -608.06866      0             -589.29402     -1051.1363      1401.6585    
    587000   1904.595      -609.40786      0             -586.01998      30270.448      1383.0407    
    588000   1605.3802     -604.89559      0             -585.18198     -3837.0093      1370.1656    
    589000   1517.6839     -603.27014      0             -584.63342     -25946.072      1448.1173    
    590000   1666.6094     -609.4667       0             -589.00121      10227.046      1371.3611    
    591000   1640.482      -603.62807      0             -583.48342     -8953.8881      1394.1935    
    592000   1528.9182     -605.50761      0             -586.73293     -27390.706      1413.2907    
    593000   1454.1385     -606.92117      0             -589.06476      23846.011      1367.4764    
    594000   1754.3735     -609.61986      0             -588.07666      16309.739      1402.5548    
    595000   1434.0228     -607.18732      0             -589.57793     -2168.2835      1365.2088    
    596000   1512.5686     -609.0391       0             -590.4652      -18599.921      1400.6782    
    597000   1625.5677     -609.53821      0             -589.57671      9691.0401      1401.0125    
    598000   1569.6226     -612.24209      0             -592.96757      11723.543      1364.7192    
    599000   1357.8729     -609.58298      0             -592.90869     -17650.199      1396.5035    
    600000   1717.135      -608.05793      0             -586.97201     -18628.974      1420.9956    
    601000   1364.1134     -607.66908      0             -590.91816      3672.4948      1386.6565    
    602000   1582.5035     -610.70486      0             -591.27217      23784.978      1337.6297    
    603000   1268.3371     -607.55557      0             -591.98076     -7839.2437      1369.6103    
    604000   1553.877      -609.18256      0             -590.10139     -7627.094       1384.8745    
    605000   1337.4272     -610.59183      0             -594.16861      4219.5815      1364.6288    
    606000   1170.1423     -611.24225      0             -596.87323     -4562.0049      1319.3811    
    607000   1402.8677     -610.99502      0             -593.7682       7194.5838      1394.2223    
    608000   1510.7825     -608.66639      0             -590.11442      28702.273      1349.5167    
    609000   1288.4927     -609.30673      0             -593.48441     -22352.447      1455.9976    
    610000   1394.1918     -614.00693      0             -596.88665     -7570.0415      1383.5705    
    611000   1293.5892     -610.44126      0             -594.55636     -26040.867      1373.3853    
    612000   1500.1494     -609.90043      0             -591.47902     -8652.0644      1367.853     
    613000   1298.947      -613.6749       0             -597.7242       16820.629      1365.3031    
    614000   1371.3087     -611.88258      0             -595.0433      -4527.0565      1367.0474    
    615000   1497.173      -613.28354      0             -594.89869     -12443.742      1406.7978    
    616000   1324.1562     -609.64341      0             -593.38315      7928.2684      1356.8594    
    617000   1072.7415     -610.69695      0             -597.524        6314.8101      1323.5511    
    618000   1536.9041     -612.94653      0             -594.07379     -18396.112      1398.0403    
    619000   1139.1259     -612.85765      0             -598.86951     -1826.9389      1400.8458    
    620000   1264.2296     -612.27015      0             -596.74577      1623.2091      1382.0351    
    621000   1125.8859     -611.47335      0             -597.64779      40694.38       1335.3396    
    622000   1119.5768     -615.23702      0             -601.48894     -983.06908      1389.48      
    623000   1293.8276     -613.37971      0             -597.49187     -6797.2515      1369.4974    
    624000   1208.4327     -615.66991      0             -600.8307      -5590.6881      1393.4143    
    625000   1123.5554     -614.0872       0             -600.29026      2292.3962      1355.7624    
    626000   1248.954      -613.43501      0             -598.09821      4301.2363      1343.8247    
    627000   1126.8752     -613.56848      0             -599.73077     -24365.148      1414.07      
    628000   1124.1554     -613.92103      0             -600.11673      8328.5091      1338.5994    
    629000   1103.3371     -614.50612      0             -600.95746      7218.1587      1386.0103    
    630000   1189.7163     -614.22041      0             -599.61103      5818.649       1363.4092    
[...]
Neighs:              0 ave           0 max           0 min
Histogram: 1 0 0 0 0 0 0 0 0 0
FullNghs:         2962 ave        2962 max        2962 min
Histogram: 1 0 0 0 0 0 0 0 0 0

Total # of neighbors = 2962
Ave neighs/atom = 30.854167
Ave special neighs/atom = 0
Neighbor list builds = 176
Dangerous builds = 0


fix npt1 all npt temp 500 10 0.1 iso 0 0 1
run 80000
Per MPI rank memory allocation (min/avg/max) = 8.549 | 8.549 | 8.549 Mbytes
   Step          Temp          E_pair         E_mol          TotEng         Press          Volume    
    880000   539.60461     -622.16622      0             -615.54003     -8279.6766      1373.8694    
    881000   414.71666     -622.65072      0             -617.55812     -19416.265      1354.1169    
    882000   486.4646      -622.36207      0             -616.38842      10439.211      1323.4333    
    883000   409.30691     -622.50118      0             -617.47501      10642.162      1339.1275    
    884000   515.18831     -623.42404      0             -617.09768      7684.5588      1346.0145    
    885000   480.03589     -623.45355      0             -617.55885      11887.266      1328.0888    
    886000   596.03383     -622.69818      0             -615.37905      10592.881      1355.6873    
    887000   456.8898      -623.74933      0             -618.13886      4065.975       1348.2404    
    888000   508.11814     -623.13767      0             -616.89812     -2735.3403      1366.4781    
    889000   431.50012     -623.2834       0             -617.9847      -15732.125      1349.0162    
    890000   441.84172     -622.48553      0             -617.05984     -10853.912      1352.3323    
    891000   474.08839     -624.33249      0             -618.51082      3257.262       1356.6377    
    892000   457.6149      -623.56769      0             -617.94831     -11952.591      1370.9954    
    893000   369.25276     -624.25949      0             -619.72517     -7589.8558      1358.8264    
    894000   384.90405     -623.8249       0             -619.09839     -1770.5079      1360.239     
    895000   482.12543     -623.1135       0             -617.19314      11244.097      1348.3126    
    896000   438.88712     -624.17522      0             -618.78581     -7395.4518      1349.473     
    897000   382.17533     -623.92474      0             -619.23174     -132.31745      1350.2451    
    898000   393.26934     -623.71434      0             -618.88511     -13193.333      1353.5035    
    899000   391.03148     -624.39461      0             -619.59286      27727.052      1324.9273    
    900000   349.83594     -624.16126      0             -619.86538     -9597.4617      1362.9679    
    901000   422.52177     -624.05695      0             -618.86851     -7981.407       1342.9924    
    902000   413.99437     -624.31395      0             -619.23022      3401.7126      1335.8336    
    903000   339.83886     -624.35843      0             -620.18531      2719.1372      1353.5469    
    904000   376.2615      -624.32096      0             -619.70058     -8794.5173      1351.2361    
    905000   318.39343     -624.34302      0             -620.43324     -197.1813       1349.9029    
    906000   362.46793     -624.77653      0             -620.32553     -7135.0617      1344.8861    
    907000   373.52992     -624.48519      0             -619.89835      3254.1528      1336.1258    
    908000   318.07634     -624.95484      0             -621.04895      637.29831      1332.9901    
    909000   323.59041     -624.31497      0             -620.34137     -5208.2989      1344.2943    
    910000   311.00024     -624.39011      0             -620.57112     -9809.3094      1354.4844    
    911000   342.30717     -624.84612      0             -620.64268     -1524.409       1345.9203    
    912000   285.71715     -625.30607      0             -621.79754     -6538.7256      1338.2385    
    913000   321.55738     -625.23447      0             -621.28583      9998.134       1326.7237    
    914000   276.8612      -625.44701      0             -622.04723      1765.5019      1341.5141    
    915000   261.64368     -625.10089      0             -621.88798     -3214.7016      1351.6551    
    916000   267.51615     -624.78869      0             -621.50367     -4347.9765      1336.7105    
    917000   285.05014     -625.5919       0             -622.09157      8171.0108      1339.3119    
    918000   266.10052     -624.972        0             -621.70436     -5847.3513      1338.909     
    919000   250.29761     -625.55181      0             -622.47823      2116.2043      1345.6458    
    920000   246.59066     -625.84999      0             -622.82193     -2740.6617      1352.0757    
    921000   220.73957     -625.63979      0             -622.92917     -2612.7038      1333.581     
    922000   208.27785     -626.21836      0             -623.66077     -6121.5704      1341.2553    
    923000   221.01274     -625.87934      0             -623.16536     -6960.8703      1353.6161    
    924000   236.89344     -625.75243      0             -622.84345     -1932.0463      1347.3815    
    925000   217.06741     -626.25713      0             -623.5916       2346.4459      1344.951     
    926000   210.92339     -626.56211      0             -623.97204     -704.36167      1348.9431    
    927000   211.85328     -626.17538      0             -623.57388      821.65003      1346.782     
    928000   244.00323     -626.37589      0             -623.3796       1767.3565      1339.8308    
    929000   200.13511     -626.55521      0             -624.09761     -55.145536      1343.3147    
    930000   209.28752     -626.54679      0             -623.9768       978.51442      1332.3315    
    931000   167.93025     -626.12978      0             -624.06765     -3386.4404      1339.0599    
    932000   177.20487     -627.14812      0             -624.97209     -4989.9157      1346.5365    
    933000   179.95915     -626.8295       0             -624.61965      9397.6699      1337.6909    
    934000   179.38622     -626.82474      0             -624.62193      9903.7204      1329.4628    
    935000   158.58037     -626.80364      0             -624.85632      1394.4728      1342.9891    
    936000   175.66123     -627.03849      0             -624.88142      5695.6292      1337.4487    
    937000   146.98152     -627.14887      0             -625.34398      3785.2239      1341.7909    
    938000   149.0994      -627.33023      0             -625.49933      5101.0504      1343.9039    
    939000   143.89875     -627.38327      0             -625.61623      4972.798       1331.8031    
    940000   140.67236     -627.41047      0             -625.68305     -6546.7613      1342.3948    
    941000   134.82325     -627.14699      0             -625.4914       4842.8749      1339.6309    
    942000   109.49094     -627.40928      0             -626.06476      309.37927      1337.5941    
    943000   115.52637     -627.3797       0             -625.96107     -2864.8041      1336.4916    
    944000   93.729427     -627.59348      0             -626.44251      4244.5345      1332.7524    
    945000   114.64685     -627.64269      0             -626.23486      3406.8114      1335.8435    
    946000   92.012296     -627.78849      0             -626.6586       5646.0823      1335.7613    
    947000   111.87168     -627.70839      0             -626.33463     -1396.6478      1338.9977    
    948000   86.41597      -627.9388       0             -626.87764      2890.9795      1332.7973    
    949000   81.211349     -628.03071      0             -627.03346     -1608.2457      1338.1771    
    950000   79.155328     -628.1442       0             -627.17219     -1431.3886      1344.9798    
    951000   62.839493     -628.12639      0             -627.35474     -2773.1268      1338.3199    
    952000   59.000927     -628.28239      0             -627.55788     -5775.792       1341.6019    
    953000   54.854293     -628.38825      0             -627.71465     -4040.6819      1340.3759    
    954000   49.327157     -628.2997       0             -627.69398      1288.3565      1332.2963    
    955000   46.381959     -628.53985      0             -627.97029      380.94428      1334.1814    
    956000   33.13941      -628.51145      0             -628.10451      55.818887      1332.6958    
    957000   29.273204     -628.60914      0             -628.24967     -3239.8802      1336.3756    
    958000   21.61084      -628.67508      0             -628.40971      113.55354      1338.2842    
    959000   16.058749     -628.787        0             -628.5898      -1327.2208      1339.1813    
    960000   10.576564     -628.85946      0             -628.72958     -718.52557      1337.0048    
Loop time of 5.76089 on 1 procs for 80000 steps with 96 atoms

Performance: 1199.816 ns/day, 0.020 hours/ns, 13886.754 timesteps/s, 1.333 Matom-step/s
99.2% CPU use with 1 MPI tasks x no OpenMP threads

MPI task timing breakdown:
Section |  min time  |  avg time  |  max time  |%varavg| %total
---------------------------------------------------------------
Pair    | 5.0748     | 5.0748     | 5.0748     |   0.0 | 88.09
Bond    | 0.0025538  | 0.0025538  | 0.0025538  |   0.0 |  0.04
Neigh   | 0.0065752  | 0.0065752  | 0.0065752  |   0.0 |  0.11
Comm    | 0.18981    | 0.18981    | 0.18981    |   0.0 |  3.29
Output  | 0.010082   | 0.010082   | 0.010082   |   0.0 |  0.18
Modify  | 0.45007    | 0.45007    | 0.45007    |   0.0 |  7.81
Other   |            | 0.02701    |            |       |  0.47

Nlocal:             96 ave          96 max          96 min
Histogram: 1 0 0 0 0 0 0 0 0 0
Nghost:            554 ave         554 max         554 min
Histogram: 1 0 0 0 0 0 0 0 0 0
Neighs:              0 ave           0 max           0 min
Histogram: 1 0 0 0 0 0 0 0 0 0
FullNghs:         3130 ave        3130 max        3130 min
Histogram: 1 0 0 0 0 0 0 0 0 0

Total # of neighbors = 3130
Ave neighs/atom = 32.604167
Ave special neighs/atom = 0
Neighbor list builds = 51
Dangerous builds = 0

fix npt1 all npt temp 10 10 0.1 iso 0 0 1
run 80000
Per MPI rank memory allocation (min/avg/max) = 8.549 | 8.549 | 8.549 Mbytes
   Step          Temp          E_pair         E_mol          TotEng         Press          Volume    
    960000   10.576564     -628.85946      0             -628.72958     -718.52557      1337.0048    
    961000   8.5411466     -628.83446      0             -628.72958      3914.5223      1330.498     
    962000   8.6462187     -628.85861      0             -628.75244      2382.9489      1333.2125    
    963000   10.014666     -628.83676      0             -628.71378     -131.17802      1335.6693    
    964000   8.8210908     -628.85406      0             -628.74574     -311.11375      1334.9719    
    965000   10.691366     -628.84967      0             -628.71838     -765.47987      1336.0898    
    966000   8.1038835     -628.83468      0             -628.73516      182.34275      1333.476     
    967000   10.668159     -628.83811      0             -628.70711     -831.13304      1334.3057    
    968000   8.4827146     -628.85722      0             -628.75305     -845.06927      1335.3233    
    969000   10.888514     -628.84877      0             -628.71507      93.049891      1335.257     
    970000   8.6485718     -628.85809      0             -628.75189      1545.9469      1335.1006    
    971000   11.379356     -628.83201      0             -628.69227     -546.30427      1332.9636    
    972000   9.8224684     -628.84286      0             -628.72224      180.08088      1332.8714    
    973000   10.864804     -628.85087      0             -628.71745     -1248.8814      1335.418     
    974000   10.091058     -628.82986      0             -628.70595     -2719.2994      1334.9       
    975000   8.9105147     -628.84643      0             -628.73701     -222.06371      1335.2563    
    976000   9.1789994     -628.86296      0             -628.75024      1371.2691      1333.0755    
    977000   10.063654     -628.83813      0             -628.71455     -1013.6802      1333.8092    
    978000   8.7449824     -628.86662      0             -628.75923      3215.2851      1334.9317    
    979000   10.335502     -628.82842      0             -628.7015      -349.64752      1336.7362    
    980000   10.241496     -628.85789      0             -628.73213     -1340.7307      1335.4898    
    981000   10.882713     -628.83177      0             -628.69813     -1548.4327      1336.7634    
    982000   10.066278     -628.85659      0             -628.73298      311.23889      1333.3094    
    983000   10.167189     -628.84233      0             -628.71748     -540.93519      1336.0017    
    984000   9.8675382     -628.84602      0             -628.72485      3138.6208      1330.2406    
    985000   8.4012527     -628.84936      0             -628.74619      516.6267       1332.1935    
    986000   10.239941     -628.8323       0             -628.70656     -2060.4845      1336.7393    
    987000   11.322215     -628.84947      0             -628.71044      463.33901      1335.0308    
    988000   10.341025     -628.84473      0             -628.71775      1423.5257      1334.1384    
    989000   8.7393578     -628.82499      0             -628.71767     -244.76215      1336.4363    
    990000   11.001134     -628.84256      0             -628.70747      1499.3903      1333.7139    
    991000   10.78954      -628.84116      0             -628.70867      207.33425      1333.2381    
    992000   8.1262975     -628.85232      0             -628.75253      1275.58        1334.5873    
    993000   11.19894      -628.85292      0             -628.7154      -1099.0587      1335.7259    
    994000   9.8850531     -628.8633       0             -628.74192      1944.2862      1336.038     
    995000   10.441874     -628.8388       0             -628.71058     -1013.9814      1334.47      
    996000   10.276257     -628.84658      0             -628.72039      653.57041      1334.0435    
    997000   8.137766      -628.84013      0             -628.7402      -1804.7824      1334.4414    
    998000   10.263246     -628.83239      0             -628.70636     -68.494846      1336.304     
    999000   10.071934     -628.8469       0             -628.72322     -2453.4064      1338.247     
   1000000   9.2064325     -628.85465      0             -628.7416      -384.56924      1336.3425    
   1001000   10.391341     -628.83808      0             -628.71048      1254.3165      1331.4355    
   1002000   9.6975947     -628.87551      0             -628.75643     -809.03144      1335.089     
   1003000   9.519031      -628.8345       0             -628.71761      1327.8306      1331.1356    
   1004000   9.22865       -628.86232      0             -628.74899      2302.9975      1335.1628    
   1005000   9.0445852     -628.83869      0             -628.72763     -278.09827      1334.16      
   1006000   10.458583     -628.8539       0             -628.72547      1846.9218      1335.2379    
   1007000   9.0191613     -628.83993      0             -628.72918      289.06927      1335.8076    
   1008000   9.6768914     -628.84761      0             -628.72878     -1820.0093      1335.4362    
   1009000   10.16908      -628.85136      0             -628.72648      2237.3679      1334.4929    
   1010000   11.225314     -628.83012      0             -628.69228     -1738.4015      1338.3874    
   1011000   9.4498911     -628.83824      0             -628.7222      -357.44488      1332.8015    
   1012000   7.7136148     -628.8508       0             -628.75608      2830.2761      1331.8443    
   1013000   10.43804      -628.84784      0             -628.71966     -213.84308      1334.9258    
   1014000   8.1558775     -628.85337      0             -628.75322     -846.75686      1337.6037    
   1015000   10.775139     -628.84406      0             -628.71175      672.13365      1333.0788    
   1016000   9.3402907     -628.83759      0             -628.7229       59.511974      1334.2337    
   1017000   9.5655707     -628.84285      0             -628.72539      3412.8287      1332.4529    
   1018000   10.714643     -628.84064      0             -628.70906      1167.1076      1333.0123    
   1019000   8.0904181     -628.86214      0             -628.76279     -573.2899       1335.4462    
   1020000   11.435252     -628.86052      0             -628.7201      -351.4099       1335.0998    
   1021000   8.7074412     -628.84544      0             -628.73852      678.25844      1335.8082    
   1022000   9.5003185     -628.8397       0             -628.72304     -411.59339      1333.5244    
   1023000   9.8285555     -628.83602      0             -628.71533      1975.3586      1330.6723    
   1024000   9.8394623     -628.85522      0             -628.7344       53.984153      1335.1357    
   1025000   11.611527     -628.8429       0             -628.70031     -2276.171       1337.7388    
   1026000   7.9122493     -628.85267      0             -628.75551      1236.1619      1332.5983    
   1027000   10.22713      -628.82957      0             -628.70399     -1113.3555      1333.5169    
   1028000   8.7557728     -628.86044      0             -628.75292      1586.4606      1334.3925    
   1029000   10.722606     -628.85271      0             -628.72104      643.03272      1333.6963    
   1030000   11.364562     -628.86461      0             -628.72505      485.22577      1334.2417    
   1031000   10.01013      -628.84975      0             -628.72683     -1430.3052      1334.2818    
   1032000   10.840925     -628.8441       0             -628.71098      1712.4805      1337.0455    
   1033000   9.5896971     -628.84848      0             -628.73072     -294.15183      1335.2248    
   1034000   9.7897597     -628.84035      0             -628.72013      353.27897      1337.0273    
   1035000   11.891575     -628.83266      0             -628.68664      2003.9931      1334.4334    
   1036000   9.9569633     -628.84372      0             -628.72145      422.5797       1335.5713    
   1037000   9.5884161     -628.8457       0             -628.72795     -1059.1505      1336.1629    
   1038000   10.921361     -628.83209      0             -628.69798      2030.1593      1334.1427    
   1039000   10.082754     -628.85188      0             -628.72807      1141.4851      1335.9319    
   1040000   10.664813     -628.84278      0             -628.71182      1113.708       1333.9811    
Loop time of 5.89268 on 1 procs for 80000 steps with 96 atoms

Performance: 1172.981 ns/day, 0.020 hours/ns, 13576.165 timesteps/s, 1.303 Matom-step/s
99.2% CPU use with 1 MPI tasks x no OpenMP threads

MPI task timing breakdown:
Section |  min time  |  avg time  |  max time  |%varavg| %total
---------------------------------------------------------------
Pair    | 5.2034     | 5.2034     | 5.2034     |   0.0 | 88.30
Bond    | 0.0026865  | 0.0026865  | 0.0026865  |   0.0 |  0.05
Neigh   | 0          | 0          | 0          |   0.0 |  0.00
Comm    | 0.19509    | 0.19509    | 0.19509    |   0.0 |  3.31
Output  | 0.01166    | 0.01166    | 0.01166    |   0.0 |  0.20
Modify  | 0.45166    | 0.45166    | 0.45166    |   0.0 |  7.66
Other   |            | 0.02819    |            |       |  0.48

Nlocal:             96 ave          96 max          96 min
Histogram: 1 0 0 0 0 0 0 0 0 0
Nghost:            570 ave         570 max         570 min
Histogram: 1 0 0 0 0 0 0 0 0 0
Neighs:              0 ave           0 max           0 min
Histogram: 1 0 0 0 0 0 0 0 0 0
FullNghs:         3094 ave        3094 max        3094 min
Histogram: 1 0 0 0 0 0 0 0 0 0

Total # of neighbors = 3094
Ave neighs/atom = 32.229167
Ave special neighs/atom = 0
Neighbor list builds = 0
Dangerous builds = 0


write_data amorphousSiO.data
System init for write_data ...


Total wall time: 0:01:21
