LAMMPS data file via write_data, version 2 Aug 2023, timestep = 100000, units = metal

96 atoms
2 atom types
0 bonds
1 bond types

0.674703403267757 11.914759265732453 xlo xhi
0.674703403267757 11.914759265732453 ylo yhi
0.7086079190237946 12.513487745976377 zlo zhi

Masses

1 28.0855
2 15.9994

Atoms # full

60 1 2 -0.55 2.821266021533123 1.362424886758565 2.0269757486652926 1 1 0
92 1 1 1.1 1.9027383116774703 2.204455057824439 0.9628507977950134 0 0 1
72 1 1 1.1 5.631727388310517 2.396431764907376 1.8633691194213933 0 0 0
55 1 2 -0.55 4.771451760469825 1.8724807460647412 3.1401579321878534 1 1 0
22 1 2 -0.55 6.997256777470372 1.5298126241925059 1.662261659252701 0 0 0
49 1 2 -0.55 9.231377240452499 2.880030356613927 2.013221236985969 0 0 0
54 1 2 -0.55 11.597706399772658 1.7146702928948583 1.0236055831508857 -1 1 1
87 1 1 1.1 10.20338614566272 1.5556426761057276 1.8632693023006648 0 0 0
43 1 2 -0.55 10.469843913272975 1.0099243327908312 3.3918644673726024 -1 0 -1
57 1 2 -0.55 1.8157031374925439 3.7794274268806953 1.360899325491503 0 1 1
81 1 1 1.1 0.9741932682672707 5.058300974225994 1.9827890061284508 1 0 0
35 1 2 -0.55 1.1122486686970525 6.135045224938819 0.7415870726151138 1 0 0
3 1 2 -0.55 1.683660212647084 5.419870586448038 3.4407481511502356 0 0 0
38 1 2 -0.55 5.792544235462186 4.037774320633584 1.7762536310829429 0 0 1
78 1 1 1.1 6.489385599256248 5.329113960583817 1.0533268876556736 0 0 1
24 1 2 -0.55 8.086071978546212 5.202525281373135 1.4296792161532186 0 0 0
95 1 1 1.1 9.098520519832856 4.443598385824884 2.4596556946889976 -1 0 1
2 1 2 -0.55 10.62350152694184 5.062771721458638 2.4469904696389255 0 0 1
42 1 2 -0.55 0.9046040613171477 8.47534004838666 1.3455906502601422 0 -1 1
85 1 1 1.1 0.7177960367365621 8.734651232167028 2.9471063184823505 0 0 0
32 1 2 -0.55 2.229696159943444 8.560206153470553 3.5300769963651235 0 -1 0
10 1 2 -0.55 5.769379673220991 6.668152164229479 1.6352938449537948 0 0 0
66 1 1 1.1 4.768092356980178 7.884722901258052 1.237600133544896 0 0 0
26 1 2 -0.55 4.645531607165491 8.818316857394048 2.574474438221542 0 0 0
1 1 2 -0.55 10.794712517591233 7.875063812588474 3.732859847904283 -1 0 0
64 1 2 -0.55 11.648710487402226 10.300196729511132 3.242894422149667 -1 0 0
89 1 1 1.1 3.3188986229522977 1.1523242551868378 3.592549179003454 0 0 0
46 1 2 -0.55 1.7813656140638963 1.1123396117368256 4.258002870329978 0 0 0
83 1 1 1.1 3.180029997657687 2.9315675254470723 6.165033999219809 0 0 0
37 1 2 -0.55 3.6226594305514452 2.349479939290539 4.7120277565885775 1 0 0
77 1 1 1.1 1.5417163401946752 5.447584854898687 5.081133254167969 1 0 0
45 1 2 -0.55 2.014058834037429 4.054086098583372 5.852737181420653 0 0 0
61 1 2 -0.55 6.248071466889182 5.396910420722048 5.717659331629809 0 0 0
63 1 2 -0.55 8.226227534483758 4.550950198485911 3.8742154339115262 -1 0 1
65 1 1 1.1 7.828734234714218 5.405313797328099 5.237957916901334 0 0 0
23 1 2 -0.55 8.776204577794019 4.6875043483179635 6.356576058128093 0 0 0
15 1 2 -0.55 11.26573448128389 5.2383309568467675 5.659668982642868 0 0 0
11 1 2 -0.55 2.050472425980272 6.936149099257567 5.572416118535421 0 0 0
79 1 1 1.1 3.011661123104383 7.883580562821308 6.562775937244719 0 0 0
39 1 2 -0.55 3.889332100085478 8.584813592632191 5.319250759118883 0 0 0
17 1 2 -0.55 8.404947124599168 6.933800688869093 4.999071166704784 0 0 0
75 1 1 1.1 9.689270097183165 7.938429719001635 4.944168233771808 0 0 0
86 1 1 1.1 3.687395697246982 9.247447183380352 3.8312353599288436 0 0 0
51 1 2 -0.55 3.7662661247490306 10.860946548269826 4.05001396170537 0 0 0
7 1 2 -0.55 9.79034999224491 9.178976185725393 5.985425231753524 -1 0 0
90 1 1 1.1 11.597050833753197 11.521784498691101 4.341155066091382 0 -1 0
29 1 2 -0.55 11.307960600677951 11.020301528237802 5.876958420613686 -1 0 0
53 1 2 -0.55 2.6925390973309247 1.4240329352674446 6.785241020573732 0 0 0
41 1 2 -0.55 0.7371752406453673 1.8308110248903144 9.202794536582026 0 1 -1
4 1 2 -0.55 6.821690760107787 1.2373808016914787 8.702757425977746 0 0 0
74 1 1 1.1 7.686215300686454 2.3320110855869 9.526968109377313 0 0 0
44 1 2 -0.55 9.172171836322171 2.5408565877519775 8.95306226772785 0 0 0
31 1 2 -0.55 10.847865109520772 3.0366191796678703 7.449064047109592 0 0 0
84 1 1 1.1 10.51203809063258 1.7431206940818986 8.458250708119179 0 0 0
33 1 2 -0.55 4.3128878011270375 3.920600279517479 6.85874069356472 0 0 0
73 1 1 1.1 5.081396725978404 5.39562140331715 6.9006082872088 0 0 0
9 1 2 -0.55 5.4942955386260985 5.520757729585656 8.494063078262414 1 0 0
20 1 2 -0.55 6.971995051306508 3.7714665587058045 9.41426413962289 0 0 0
71 1 1 1.1 10.326544522045715 4.3401742113912904 6.621157415074982 0 0 0
36 1 2 -0.55 2.129817666044808 7.520243234667934 7.948281911840951 0 0 0
67 1 1 1.1 1.0268602357482277 8.104474270648785 8.998223139182599 0 0 0
19 1 2 -0.55 4.294119558703621 6.859161978809425 6.908331043549856 0 0 0
5 1 2 -0.55 10.693136465634716 7.777920182579413 9.321205967451526 -1 0 0
93 1 1 1.1 9.362959203023141 8.692942427468136 9.63314751196734 -1 0 0
13 1 2 -0.55 2.713991400443472 9.599566156934674 6.74049632866001 0 0 0
69 1 1 1.1 3.019014223340361 11.114854640869115 7.40254635838429 0 0 0
62 1 2 -0.55 2.503735350284942 11.22651048291658 8.991519319194769 1 -1 0
40 1 2 -0.55 4.619245941245954 11.175140394958081 7.657429971456756 0 0 0
80 1 1 1.1 5.603884828052965 11.432936101975493 8.90975583962759 0 0 0
14 1 2 -0.55 6.099934592058877 10.037142889805185 9.565499209058535 0 0 -1
48 1 2 -0.55 11.827486110729001 9.411088133733578 8.04657960456386 -1 -1 0
59 1 2 -0.55 10.258840325009615 11.699998665734896 7.45508169974016 0 0 1
96 1 1 1.1 10.597801477367444 10.091748156125831 7.120860817293958 0 -1 0
25 1 2 -0.55 9.445626888748947 9.572905501609302 8.257858238357908 0 0 0
94 1 1 1.1 1.7356731053489858 0.9370132980619399 10.104727376436049 0 0 0
34 1 2 -0.55 2.5788408034247174 1.8521551142417414 11.234285035928469 1 0 0
18 1 2 -0.55 4.554315434162891 0.940060133066396 9.923444766634105 0 1 0
16 1 2 -0.55 4.844144958425318 1.8941549032478555 12.335221923282438 0 0 -1
91 1 1 1.1 4.191849968420398 2.201957463769185 10.894029306588987 0 1 -1
52 1 2 -0.55 4.50655644517745 3.6725948477246724 10.271256510222994 0 0 0
12 1 2 -0.55 7.657511981220676 1.8637588211258218 11.08244997534187 0 0 -1
56 1 2 -0.55 9.937931617085699 0.888146674677368 9.827350272751355 0 0 0
28 1 2 -0.55 9.447150007940383 0.6790244867538817 12.44134852654799 0 0 -1
88 1 1 1.1 5.721904737371477 4.707442092557102 9.890790700405796 0 0 0
27 1 2 -0.55 6.21693288010672 5.477052617180476 11.22899811628309 0 0 0
8 1 2 -0.55 3.294357983979804 7.33632705775361 0.775512329200966 0 -1 0
21 1 2 -0.55 1.677640296339721 8.144758495359312 10.514946203454322 0 0 0
76 1 1 1.1 1.7456929124828544 7.5811418736828635 12.067702294705903 0 0 0
30 1 2 -0.55 5.423345459346501 8.544014571276909 11.683609852231957 0 0 -1
50 1 2 -0.55 7.876082521858155 8.439782262720556 10.296986027024623 0 0 0
68 1 1 1.1 7.781169464266607 0.7379174326118267 12.27080399074097 0 0 -1
70 1 1 1.1 6.6467750240982175 9.33248822309984 10.929672755416059 0 0 -1
6 1 2 -0.55 7.169442828499244 10.484252224524049 11.979110512844123 0 -1 -1
58 1 2 -0.55 11.90823734282263 11.398540766953346 11.051585312084805 -1 -1 0
47 1 2 -0.55 9.899167881211582 9.677786034916402 10.827785557122509 -1 -1 0
82 1 1 1.1 10.301713058577874 11.216452365516034 11.159483836518453 -1 0 0

Velocities

60 -1.2466732892176515 2.5151771519628756 -1.5410008414576533
92 -0.04552438998212894 0.8187727126211518 -1.981711087140682
72 0.27111823314270567 -0.9418716682076942 0.9802302318152409
55 0.7604461761283768 -0.18759777774677 -1.2974692980225002
22 -0.7703314764125576 0.47839840260293315 -0.021993541739229124
49 1.3227425786313867 0.4901920212534481 -0.40727930260890927
54 1.1030526373046525 -1.3650780384399663 0.7475325816677456
87 -0.6376627867378797 0.5584823921896797 -0.7980990774514224
43 -0.17745889524127295 0.5542126827959893 0.3293137114469202
57 -1.6413647204574442 0.39404048134155983 0.3854714962452767
81 0.5185395820781065 0.7037548925804616 -0.21614325937921014
35 1.173195136601665 -1.5054225500864995 -2.546111236649097
3 -1.2016340337199314 -0.5407239474496093 -0.8351822282381668
38 -1.504394778366475 1.68162574057043 1.0469071488556554
78 0.01434986048638247 0.11659037099862245 -0.7308301969323568
24 0.5529041573805727 0.5439837524512052 0.36885835042314336
95 1.1706115161011905 -0.6131472083505984 0.05194051480381658
2 0.420390556366712 0.016454477036725226 0.7958139277035194
42 -1.5457164666897174 0.04972802620433857 -0.35975255327583894
85 -0.5589936685028338 -0.7096579809155286 0.8850059269467231
32 0.04084534006495923 0.5452055437192607 -0.2777698666710999
10 1.2500195562480716 0.4757147461802532 0.24116425626037233
66 -0.661515178894657 -0.13278232303524953 -0.6779427430765176
26 0.91454968784016 0.4575820339307229 0.32595713689067873
1 0.48060873579009267 -0.8126937405508143 -1.0467073706519119
64 -1.8564397617379635 -0.5009011745989508 0.07936107798021781
89 -1.2097669068796701 0.7593321362024403 1.7273127518618119
46 -1.108854331799572 -1.1451708693742542 -1.3377360860141643
83 -0.040326664514986794 0.1574463145703127 1.1473504473374543
37 -0.6805804577138829 -1.5969278957188455 1.1941820683597306
77 -1.092331789235725 0.3936860602479129 2.1555508874431433
45 -0.6151759454010147 0.5674304891880486 1.2830424362295076
61 -1.138710472317266 0.6881217367490535 -0.33656280803709204
63 -1.5663421499275425 -1.2678043155983407 1.5617149079457142
65 -0.36071762028282045 -0.4833920316457341 0.7926352915083089
23 0.12653247878801377 -0.21229840674713069 0.9016525028964427
15 0.7714653413954591 1.0916807781123663 -0.7517998180955734
11 -0.5143565501401337 -0.26767307338634116 0.6430833736136086
79 -0.2563600748771407 -1.1228022090655945 0.48114097280296436
39 1.2135910213441392 -0.9580715016767923 -1.1216191358981091
17 1.2607329597280228 -0.065497835248374 -0.17173899475860194
75 0.24424843817505748 -0.4915381271897266 -0.5143287153873117
86 -0.19460803742367472 -0.06077132283267442 -0.5733332047075476
51 0.9584220115954996 -0.6175097757022809 0.49002580105344207
7 -0.5192891828886028 -1.171334225393854 -0.06231528337935166
90 -1.7735680104060503 -0.16701418600465928 0.4070507512716043
29 -1.2789141696784965 0.11231139047078288 0.042674785782885735
53 0.0651841912997365 -0.22204258407048236 1.298940411620569
41 0.48334805645291423 0.37889555888015647 -0.4253030665641666
4 -1.1646371950746017 -0.16997655037451806 0.5909403106332994
74 0.8139758295394307 0.4502753974557376 -0.40069275216705846
44 1.021767086575598 -0.1182343063418714 0.21074915166278185
31 -0.5080980721228164 -0.7711559649569346 -0.24170678345796148
84 -0.4022477613422486 1.5174024653312976 0.10999183046859361
33 1.5876454826889805 -0.3877903505219003 -0.1878212378774624
73 0.1221625539047058 -0.05019506138438838 -1.0920247894939017
9 0.8695241058198203 -0.5054821342979099 -0.5313423818769747
20 0.5797232404493392 2.3079399040131303 0.0433374235985739
71 0.007284244174639084 -1.7685936213993194 -0.6995480001648132
36 -1.0091966173051619 0.8040687443461341 2.0466762138180346
67 0.7959013953019645 0.2997120665802042 0.7609555306431627
19 1.1560011608885703 -0.4788931163735944 1.0999352367623179
5 0.1474171889821124 -0.5902248751132015 -0.3517377622521742
93 0.8986324364975321 1.2857497702890537 -0.3658469364249982
13 -0.15605824740229293 -1.0179925043513798 0.3704592319487639
69 1.6397599787123187 -1.5415152087193982 0.5268116592468401
62 -1.9152185648334221 0.7316216787608053 1.147619371100774
40 1.1671338438157175 -0.3211889738886942 -2.155283443395676
80 -0.269395958779405 0.06815148236196512 0.1500223611038099
14 -0.5967689078477694 -1.4380565612856875 0.5552133322945207
48 -1.2247869424766453 1.4843964764819466 0.16068340937868505
59 -0.7493154583880408 -1.1084414401811864 0.4309028941055995
96 -0.3600331573085464 -0.7029287841473767 -0.7028652194638829
25 0.49233270038931193 0.719090489417663 0.031359892460334486
94 1.2262263008428145 -0.48133562802691154 -0.4809131518901261
34 -0.16382070681985175 0.6501370449100539 -0.9102426793429376
18 1.004933028362808 -0.9126743859754596 -1.2900227197907899
16 1.453278668573867 1.7516258477476458 -1.1002379813729555
91 -0.1454601398274394 0.8475589192274445 0.8270546559584714
52 0.2887973835516605 -1.480208900583579 0.1324671534419976
12 0.3476257183623609 -0.05685896662094346 -2.755958677325129
56 -1.5046112645015601 0.670611649560549 0.12389663434314885
28 0.9324615807700423 -2.9789681384470144 -0.2583682104728737
88 0.3704955804564224 -0.3015330358301147 -0.6898769274519958
27 1.631319845127057 0.2272199501099118 0.1748358935022318
8 0.7504725994442245 1.2847870477842336 -0.45213158100672723
21 1.4297013079153271 1.608367673187391 -0.5531686174222549
76 -0.17485163456734598 0.5353083433516928 -0.03763842402886618
30 -0.5453589677902612 0.45482979541685276 -0.015288572923460328
50 -0.9741653307153719 -0.34608992163088126 0.08749855052251657
68 0.7869833971104888 -0.17185262797758333 0.9524407247993331
70 0.4736561434851288 -0.5687006746912677 0.7543845790347832
6 -2.3840421908777603 1.0350471138279105 -1.3371152589985118
58 1.122310359959192 1.5815573721784701 0.16855198223562984
47 0.7724679580223033 -0.10577135666827117 1.0231045553799147
82 -0.8234426308308649 1.1552222691028085 -0.15789702851274126
