96
 Atoms. Timestep: 0
2 0 7.95642 4.74695
2 4.63304 0 11.358
2 0 4.63304 4.74695
2 7.95642 0 11.358
2 0 4.63304 8.47514
2 7.95642 0 1.8641
2 0 7.95642 8.47514
2 4.63304 0 1.8641
2 10.7421 8.43088 6.61105
2 4.15858 10.7421 0
2 1.84736 4.15858 6.61105
2 8.43088 1.84736 0
2 1.84736 8.43088 6.61105
2 8.43088 10.7421 0
2 10.7421 4.15858 6.61105
2 4.15858 1.84736 0
2 10.5201 6.29473 5.04003
2 6.29473 10.5201 11.6511
2 2.06934 6.29473 5.04003
2 6.29473 2.06934 11.6511
2 2.06934 6.29473 8.18207
2 6.29473 2.06934 1.57102
2 10.5201 6.29473 8.18207
2 6.29473 10.5201 1.57102
2 10.1594 8.65935 9.20274
2 3.93011 10.1594 2.59169
2 2.43004 3.93011 9.20274
2 8.65935 2.43004 2.59169
2 2.43004 8.65935 9.20274
2 8.65935 10.1594 2.59169
2 10.1594 3.93011 9.20274
2 3.93011 2.43004 2.59169
2 2.43004 3.93011 4.01936
2 8.65935 2.43004 10.6304
2 10.1594 8.65935 4.01936
2 3.93011 10.1594 10.6304
2 10.1594 3.93011 4.01936
2 3.93011 2.43004 10.6304
2 2.43004 8.65935 4.01936
2 8.65935 10.1594 10.6304
2 0 10.703 0
2 1.88643 0 6.61105
2 0 1.88643 0
2 10.703 0 6.61105
2 0 0 1.872
2 0 0 8.48305
2 0 0 11.3501
2 0 0 4.73905
2 11.2706 2.31295 2.18973
2 10.2765 11.2706 8.80078
2 1.31887 10.2765 2.18973
2 2.31295 1.31887 8.80078
2 1.31887 2.31295 2.18973
2 2.31295 11.2706 8.80078
2 11.2706 10.2765 2.18973
2 10.2765 1.31887 8.80078
2 1.31887 10.2765 11.0324
2 2.31295 1.31887 4.42131
2 11.2706 2.31295 11.0324
2 10.2765 11.2706 4.42131
2 11.2706 10.2765 11.0324
2 10.2765 1.31887 4.42131
2 1.31887 2.31295 11.0324
2 2.31295 11.2706 4.42131
1 11.0086 7.83654 8.10972
1 4.75292 11.0086 1.49867
1 1.5809 4.75292 8.10972
1 7.83654 1.5809 1.49867
1 1.5809 7.83654 8.10972
1 7.83654 11.0086 1.49867
1 11.0086 4.75292 8.10972
1 4.75292 1.5809 1.49867
1 1.5809 4.75292 5.11238
1 7.83654 1.5809 11.7234
1 11.0086 7.83654 5.11238
1 4.75292 11.0086 11.7234
1 11.0086 4.75292 5.11238
1 4.75292 1.5809 11.7234
1 1.5809 7.83654 5.11238
1 7.83654 11.0086 11.7234
1 10.1088 10.1088 3.30552
1 2.48067 10.1088 9.91657
1 2.48067 2.48067 3.30552
1 10.1088 2.48067 9.91657
1 2.48067 10.1088 3.30552
1 10.1088 10.1088 9.91657
1 10.1088 2.48067 3.30552
1 2.48067 2.48067 9.91657
1 0 1.60471 1.57853
1 10.9848 0 8.18958
1 0 10.9848 1.57853
1 1.60471 0 8.18958
1 0 10.9848 11.6436
1 1.60471 0 5.03252
1 0 1.60471 11.6436
1 10.9848 0 5.03252
96
 Atoms. Timestep: 2000
2 0.48054 7.40299 5.08306
2 4.05803 12.342 11.9776
2 -0.0356995 5.08188 4.2096
2 7.49327 12.4053 12.0399
2 12.7136 4.42019 8.2497
2 8.54353 -0.291716 1.78529
2 12.6656 7.29545 9.0221
2 4.35413 0.338842 1.36137
2 11.6661 8.10521 6.57375
2 4.27679 10.5886 0.016153
2 1.2443 4.42553 6.85033
2 7.26118 1.49596 0.0206784
2 1.84522 8.33452 7.17537
2 8.37686 11.1936 -0.25521
2 11.4355 4.09834 5.83291
2 3.67419 2.18103 13.1437
2 11.1043 6.127 4.78281
2 6.13245 10.6697 12.2923
2 2.46316 5.78929 5.24611
2 5.67338 1.15959 11.5071
2 1.59115 6.60368 8.88082
2 5.9662 1.89987 1.90797
2 10.7855 6.09515 7.96687
2 6.44309 10.8297 1.67443
2 10.6147 8.93351 8.7771
2 3.90084 10.4795 2.61505
2 1.30768 4.26779 10.0226
2 8.96581 1.99726 2.35872
2 1.04834 9.13046 10.0003
2 9.15926 10.6053 2.75136
2 9.80672 3.12675 8.28131
2 3.57077 2.9123 1.38541
2 1.61191 3.69212 3.84159
2 8.23811 1.98555 10.83
2 11.7147 8.76884 3.98413
2 3.75358 10.0072 10.927
2 10.2205 3.37104 4.17093
2 3.23744 2.46436 10.6073
2 2.90366 8.93569 4.34711
2 8.86537 10.2167 10.7262
2 12.4237 11.3219 0.26764
2 1.64356 12.7813 6.46757
2 13.1617 1.34029 -0.262737
2 10.9687 0.174632 6.16225
2 0.116912 -0.0892536 2.15527
2 12.9188 0.251617 8.15149
2 0.0471123 -0.292984 11.6272
2 0.402168 12.3243 4.72485
2 11.2919 1.45977 1.95764
2 11.1548 11.6713 8.7433
2 1.25362 10.7397 2.67667
2 1.54656 1.28994 8.75378
2 0.969441 2.46894 1.88729
2 2.47722 11.6587 9.05972
2 12.349 10.9288 2.96463
2 10.0422 1.02835 8.52255
2 1.002 10.9389 11.2049
2 1.89586 0.942121 3.16369
2 11.1138 1.65107 10.83
2 10.7813 11.7319 3.9856
2 11.2262 10.7636 11.2318
2 11.2827 1.42563 4.21808
2 0.42678 2.23072 10.2898
2 2.58692 12.0939 4.01864
1 11.2668 7.60768 8.08276
1 4.75336 11.2876 1.50284
1 0.947134 5.19552 8.45058
1 7.57641 1.41941 1.88843
1 1.23823 8.10327 8.77521
1 8.16197 11.1848 1.4972
1 11.1977 4.36405 7.47082
1 4.76462 1.97219 0.824873
1 1.52622 4.51919 5.2709
1 7.41935 1.03441 12.0644
1 11.9089 7.52067 5.1179
1 4.53844 10.6902 12.2419
1 11.232 4.64485 4.58418
1 3.98282 1.28536 11.7767
1 2.29052 7.49546 5.72694
1 7.56154 10.7424 11.9264
1 10.7686 10.2014 3.60325
1 2.30562 10.3587 10.0433
1 2.42799 2.49666 2.64252
1 9.81641 2.1896 9.78174
1 2.73016 10.192 3.51649
1 10.5789 10.3117 9.8858
1 10.4207 2.29876 2.92053
1 1.74913 2.56904 9.69274
1 12.7648 1.44472 1.50913
1 11.1968 0.105688 7.77919
1 -0.0604505 11.704 1.79959
1 1.36115 12.7258 7.94449
1 12.6834 11.2968 12.1385
1 1.64175 -0.0394533 4.70321
1 12.5013 1.46836 11.8223
1 11.5802 -0.270749 4.54631
96
 Atoms. Timestep: 4000
2 9.26772 7.28541 5.86025
2 4.94257 12.3755 13.1669
2 9.33504 5.68439 6.13908
2 8.36647 12.5737 11.7413
2 12.6686 4.02093 7.96355
2 8.85421 12.8283 1.06553
2 12.793 7.90557 8.83363
2 5.08638 -0.0856554 2.38814
2 10.5639 8.54638 6.74889
2 4.96497 10.7657 0.692287
2 0.687493 5.17063 6.45279
2 8.79495 1.56647 12.8322
2 0.51674 8.84217 6.38775
2 8.23381 10.7934 13.2467
2 10.3781 4.07889 6.66958
2 4.83887 1.61288 0.121191
2 12.314 8.46432 4.8054
2 6.52184 10.3565 12.3343
2 0.500306 6.67733 4.45826
2 6.244 0.842369 11.3928
2 1.11221 6.46605 8.26246
2 6.79655 1.12419 2.13925
2 11.7545 6.17292 7.91181
2 6.71087 10.7954 2.15304
2 10.9621 8.78064 9.40908
2 3.65037 10.703 3.2603
2 2.14904 3.51704 9.07674
2 8.89309 2.44735 1.81309
2 2.21874 8.80938 9.20409
2 8.74455 10.1577 2.15632
2 10.6264 3.31064 9.04303
2 4.39865 2.09699 2.60284
2 3.65473 4.11909 3.40401
2 8.83863 1.60582 10.3194
2 10.6889 8.85549 3.67348
2 4.12007 9.49995 11.1596
2 9.79727 3.51971 3.59595
2 3.45932 1.37031 11.3135
2 1.54405 10.1104 4.60542
2 9.41716 9.96647 11.2776
2 0.0546703 12.0446 13.1653
2 1.9359 12.7498 6.57835
2 -0.0627195 2.02993 13.4922
2 11.7882 12.3726 6.25126
2 -0.242908 0.0503454 1.23692
2 0.289012 12.5566 8.91733
2 12.8058 -0.104086 11.4419
2 0.120099 0.108939 4.71734
2 11.242 2.27294 1.70766
2 11.1261 10.9253 8.5833
2 1.01563 10.7745 2.0038
2 2.2676 0.637424 9.12236
2 1.11005 2.46624 2.16908
2 2.77568 11.3583 8.93152
2 11.2472 11.0528 1.82271
2 10.5319 0.45016 8.78398
2 1.48418 10.5874 11.2603
2 2.34408 2.02775 4.7256
2 11.1334 1.16436 11.1164
2 10.8903 11.1355 4.36608
2 12.3151 10.5667 10.9131
2 10.316 0.690691 3.73944
2 0.678969 1.92426 10.2669
2 1.98317 12.5228 3.85359
1 11.0407 7.84036 8.16209
1 4.8771 11.2922 2.19659
1 1.29163 4.88444 8.2156
1 8.19766 1.30993 0.901205
1 1.13393 7.98166 7.95878
1 8.01915 11.1695 1.24815
1 11.2677 4.66984 8.09335
1 5.23573 1.2618 1.62857
1 -0.0234748 4.76146 4.87396
1 7.79255 0.932579 11.4622
1 10.613 7.99513 5.09763
1 4.79653 10.4871 12.5904
1 9.2274 4.42808 5.00173
1 4.75127 0.670891 12.2675
1 0.901385 8.6321 4.77828
1 7.90554 11.056 11.6422
1 10.3807 10.3326 2.88444
1 2.65528 10.1067 10.1961
1 2.80379 2.67408 3.22598
1 10.3208 1.86332 9.92072
1 1.86005 11.0341 3.32987
1 10.8364 10.4567 10.2473
1 10.1643 2.09842 2.81901
1 2.2103 2.06185 10.1315
1 -0.284557 1.71124 1.29289
1 11.613 12.3865 8.20256
1 12.607 11.6311 1.13511
1 1.80403 12.6503 8.13111
1 0.281293 11.2975 11.6779
1 1.64151 0.530479 4.87352
1 -0.236276 1.37696 11.606
1 11.6449 -0.211918 4.65262
96
 Atoms. Timestep: 6000
2 11.5663 6.74639 4.62631
2 3.93032 12.1429 12.124
2 11.6753 3.28347 3.63491
2 6.89337 12.6098 11.5667
2 10.0334 7.51331 10.5078
2 5.95591 11.9133 2.44531
2 11.2219 8.28849 10.0483
2 4.50588 11.6714 0.625246
2 11.4333 7.81507 7.15974
2 4.02475 9.89908 12.6617
2 3.58354 4.69331 6.40215
2 8.30831 1.39285 -0.192002
2 2.6798 8.25215 6.33544
2 7.46843 11.0381 0.124427
2 0.252534 1.36247 4.84283
2 5.37476 0.488715 13.0306
2 0.729325 7.09025 5.55539
2 6.36107 10.6484 10.6667
2 2.76822 6.34549 4.24286
2 5.95708 1.68128 11.3347
2 2.99083 6.66807 8.18208
2 6.40356 1.17295 1.65709
2 10.1102 6.99501 8.60339
2 5.61439 9.98983 1.83072
2 10.1525 9.95301 8.74273
2 3.46615 10.303 2.11329
2 3.1921 3.94845 9.16868
2 9.25651 2.541 1.83181
2 2.19268 9.06818 8.46475
2 8.6494 9.83708 2.69113
2 9.9233 4.26478 9.58293
2 4.34486 1.55436 1.98591
2 3.21032 3.55484 3.74026
2 8.72761 2.12443 10.7403
2 11.1368 9.24947 5.33654
2 3.50627 9.45571 10.0493
2 11.3017 2.69965 6.65221
2 3.89843 1.61485 10.6939
2 2.31879 8.78162 3.87042
2 8.56579 10.6262 10.5361
2 11.4915 11.7311 13.1864
2 1.38116 0.991522 6.53599
2 0.820922 1.85255 13.4476
2 10.3084 0.0550346 6.21409
2 12.1796 -0.0500226 2.1983
2 12.0116 0.689651 8.1729
2 0.428823 -0.174982 11.6328
2 12.9271 12.0427 4.51841
2 11.3596 2.03133 1.18258
2 9.68593 12.5101 8.34059
2 0.923312 10.9582 2.98701
2 2.21818 1.6994 8.62737
2 1.45133 1.9535 2.22516
2 1.62173 11.6495 8.76645
2 10.6585 10.4337 2.80263
2 10.0292 1.96795 8.73046
2 0.786333 10.6529 10.8958
2 2.60424 1.01133 4.33487
2 11.2796 2.64047 11.1778
2 9.08991 11.0844 4.67216
2 10.9079 11.5268 10.7761
2 10.0393 1.53212 3.88292
2 1.15771 2.49109 10.7101
2 2.26765 11.6691 4.75376
1 10.9573 8.39981 8.47807
1 4.33434 10.2734 0.740769
1 3.06864 5.04452 8.07333
1 7.82575 2.3176 1.36713
1 3.2088 8.20346 7.95538
1 7.31104 10.6096 1.95772
1 9.96335 5.93678 9.88564
1 4.96154 0.327699 1.18855
1 3.51535 4.72115 4.73814
1 7.9628 1.10577 11.7121
1 11.9698 7.88258 5.75124
1 4.45984 10.5308 11.0641
1 12.35 2.9441 5.01092
1 4.52549 0.733984 11.6058
1 2.24277 7.56096 5.08046
1 7.63631 11.002 11.9178
1 9.62081 9.72781 3.96745
1 1.53014 9.93778 9.64274
1 2.99023 1.90535 3.02689
1 9.9372 2.61898 10.097
1 2.4589 10.5147 3.5201
1 9.80641 11.3534 9.61621
1 10.7012 2.49572 2.4944
1 2.51529 2.35515 9.98556
1 0.149133 1.45033 1.43895
1 10.757 1.17975 7.50386
1 11.9171 11.3327 3.3051
1 1.11473 0.692641 8.0733
1 12.3934 11.2426 11.8735
1 1.47957 0.191303 4.9739
1 0.213474 1.69855 11.8426
1 10.0177 -0.0532728 4.54088
96
 Atoms. Timestep: 8000
2 10.0933 5.66146 5.27842
2 3.42755 12.2759 11.158
2 10.2733 3.07742 4.19314
2 7.46586 0.613829 12.2968
2 12.1531 4.1318 10.7093
2 6.36951 11.3522 2.41668
2 0.910539 8.18712 8.40263
2 4.46177 8.08495 12.4302
2 10.6003 7.57628 7.29162
2 4.85002 8.03283 10.3339
2 2.05823 5.20569 6.95631
2 8.02165 2.7496 12.8948
2 2.40071 7.93492 6.78705
2 7.63764 11.0261 0.774717
2 11.8419 4.42294 6.04403
2 5.11671 12.6767 0.92608
2 12.1147 7.29584 5.19891
2 6.64043 9.89794 11.5976
2 1.84749 5.75479 4.90866
2 5.5922 2.07153 11.7844
2 2.82076 6.88073 9.2567
2 6.57566 2.0473 1.55002
2 11.3743 6.61548 8.98864
2 6.09135 8.97818 1.25453
2 10.2583 9.99923 8.81729
2 3.33258 8.43334 1.93512
2 3.60817 4.01731 9.09289
2 9.33727 2.40865 2.16641
2 2.49672 9.85392 8.82076
2 8.69811 10.0554 2.81192
2 10.6201 3.94175 9.35777
2 5.06503 2.6443 3.27027
2 2.06908 3.22943 4.74222
2 8.33113 2.45928 10.3052
2 9.96753 8.34362 4.93594
2 4.33381 10.1532 10.0852
2 10.6165 2.66543 6.55696
2 4.18291 1.98882 9.90796
2 1.77757 8.22709 3.67275
2 8.20583 11.8229 10.7065
2 0.111374 11.3088 0.49237
2 1.77909 0.389476 5.612
2 0.740519 3.43913 0.271327
2 8.69204 0.785494 5.98506
2 0.00325189 0.98937 1.86209
2 11.7042 1.36068 7.77968
2 12.7149 0.722181 11.3476
2 1.15208 11.9402 3.53549
2 11.9449 3.07514 2.49495
2 10.08 12.3141 8.06311
2 1.68681 10.7039 1.90385
2 1.72944 1.82178 8.59091
2 2.23643 2.74688 2.25684
2 1.80342 12.0799 8.18554
2 11.1904 10.6255 3.29666
2 9.7013 2.36851 8.5575
2 1.51336 10.8655 10.8133
2 3.24304 0.969131 3.16037
2 11.0764 2.40539 11.3988
2 10.0386 12.3769 3.85435
2 11.049 11.3608 10.7338
2 7.64319 1.00411 3.33822
2 1.45393 2.75088 10.6736
2 3.37508 10.5521 3.74225
1 11.3729 8.22131 8.40886
1 4.63775 8.19592 1.08671
1 3.11265 5.26838 8.4459
1 7.94403 2.52965 1.36135
1 2.43698 8.23779 8.32288
1 7.28534 9.88925 1.86966
1 11.7755 5.12052 9.33795
1 5.93882 0.712226 2.165
1 1.04821 4.24555 5.86952
1 7.21635 2.25758 11.5417
1 10.7207 7.05494 5.87172
1 5.14711 9.21552 11.4032
1 10.2787 3.92167 5.73564
1 4.71414 0.94187 12.5125
1 1.41931 7.52794 5.14698
1 7.21408 11.3733 12.0472
1 9.8921 9.67113 3.89787
1 2.86395 11.3746 9.59907
1 3.32248 2.49588 3.28042
1 9.98102 2.57325 10.2163
1 2.65379 9.31144 3.00548
1 9.73382 11.6533 9.73267
1 10.589 2.28542 3.03123
1 2.79816 2.63705 9.53137
1 0.857276 2.47799 1.54739
1 10.0524 1.38589 7.28547
1 12.4368 11.3686 2.28829
1 1.10331 0.937111 7.39554
1 12.504 11.433 11.8646
1 2.65171 11.8439 4.07731
1 0.299918 2.59348 11.7648
1 8.88767 0.984993 4.49473
96
 Atoms. Timestep: 10000
2 9.75454 4.59106 6.30121
2 6.73378 11.0151 9.13238
2 9.6653 3.54424 4.30939
2 9.81487 0.442356 12.4064
2 10.1889 8.61234 12.7973
2 3.7913 10.3026 2.97953
2 12.2565 8.20686 7.73786
2 5.28072 11.5882 0.761695
2 9.62311 7.53985 7.87783
2 6.44347 9.26192 0.282568
2 2.73083 4.06241 5.77149
2 7.73624 2.18306 12.738
2 1.73416 6.93605 6.29349
2 8.30435 10.3229 0.919538
2 12.3716 4.57649 5.10079
2 3.18691 0.586739 1.90269
2 11.1568 7.0172 6.04677
2 5.83854 11.508 10.9795
2 1.6664 5.79953 3.98627
2 7.93563 0.812725 10.6266
2 2.36926 6.09711 7.98773
2 7.75468 0.242406 2.08101
2 11.7432 8.59613 10.3738
2 5.58094 8.95974 2.04023
2 10.3183 10.4105 8.3328
2 2.85405 8.34947 1.73978
2 4.15628 4.08886 8.3167
2 8.19249 2.96114 2.26607
2 2.18003 8.73413 8.94204
2 8.29577 9.01737 3.06972
2 10.911 5.99261 11.6138
2 1.78638 0.750379 1.58599
2 1.98152 3.57884 3.07949
2 10.0179 3.08664 11.4872
2 9.27477 7.60894 5.34408
2 4.31892 9.89976 10.9571
2 11.2039 2.47925 6.38423
2 4.72647 1.42011 9.80005
2 1.35553 8.65915 4.34591
2 9.81374 10.4934 10.9155
2 0.827173 11.0878 12.1838
2 1.96051 1.29386 6.57282
2 0.583683 2.31554 12.5832
2 8.10271 1.40376 4.04687
2 11.8867 0.505789 0.430704
2 0.882942 1.65187 8.76622
2 1.67467 1.17371 10.6279
2 12.129 11.7851 5.58878
2 9.62812 3.04833 0.901286
2 10.8697 0.871518 9.10097
2 1.5994 10.5533 2.21718
2 2.81676 2.15675 8.75218
2 11.923 1.84883 2.13504
2 3.34028 11.4169 8.57334
2 10.9778 9.28762 4.39565
2 10.4899 3.83326 9.12522
2 1.62744 10.7862 9.52735
2 2.12177 1.40546 3.95364
2 0.428282 3.71475 10.6429
2 8.2578 10.6864 4.31143
2 11.7912 11.1591 10.5886
2 5.53276 12.1216 3.74077
2 3.13784 3.22222 10.8872
2 1.76371 10.6068 4.79122
1 10.9175 8.64148 8.91874
1 4.52173 7.83074 1.27568
1 3.24423 4.98656 7.17035
1 7.17338 1.86851 1.51028
1 1.68613 7.66943 7.9253
1 7.18505 9.73071 1.87295
1 11.1648 7.67228 11.6782
1 4.54358 11.7811 2.5105
1 2.04668 4.31145 4.48027
1 8.95815 1.72815 11.5662
1 9.98493 6.35713 6.38936
1 5.3825 10.5885 12.1108
1 11.0557 3.49814 5.2954
1 6.29402 0.393162 9.71695
1 0.700081 7.12931 4.90883
1 9.57821 10.9224 12.5194
1 9.24272 9.30205 4.56256
1 3.4605 9.95212 9.39339
1 1.2912 2.25713 2.61067
1 10.9898 4.62965 10.8318
1 2.30791 9.53839 3.0707
1 10.3397 11.5084 9.5095
1 9.32208 3.968 2.51346
1 4.02139 2.93935 9.58317
1 11.2796 2.10918 0.61702
1 11.1536 2.23437 8.13252
1 0.636843 11.5488 1.23125
1 2.23302 0.71841 8.00829
1 1.08648 11.8583 10.5886
1 1.5392 0.315744 5.30998
1 1.79205 2.73302 11.3196
1 7.36427 12.1255 3.87959
96
 Atoms. Timestep: 12000
2 9.75248 6.81279 3.27627
2 9.53216 5.9231 11.1801
2 7.86216 6.82522 1.98349
2 10.3733 12.1479 11.8153
2 8.23844 8.31942 9.70746
2 2.97468 10.7644 2.03161
2 1.6603 8.13736 8.11211
2 5.15481 11.4725 1.39875
2 10.2833 6.07557 5.5509
2 5.85042 8.97009 12.5515
2 3.02401 4.85829 5.92544
2 8.38346 2.26855 1.13107
2 2.8826 8.06869 6.22622
2 7.42094 6.99107 12.4342
2 12.0259 5.0816 5.75128
2 3.48724 1.86829 2.77336
2 12.1973 7.93718 5.16029
2 5.22375 12.0958 11.5589
2 2.16677 6.793 4.86292
2 7.92946 12.1846 11.9338
2 3.95542 6.7522 7.29419
2 7.72548 3.8096 11.5776
2 11.4762 6.83055 7.81235
2 5.56596 6.66753 1.70408
2 11.6216 9.63492 7.96228
2 3.37992 7.61486 1.67074
2 4.94556 4.22889 8.32648
2 8.62412 4.80584 1.53125
2 3.21824 9.06745 9.51254
2 7.17324 8.13423 3.55361
2 11.8484 4.21164 11.347
2 1.36355 2.08802 2.04568
2 1.61292 3.55719 4.68772
2 10.6997 1.9951 12.6202
2 9.24485 8.60924 5.23468
2 4.30643 10.2588 11.1425
2 10.8052 4.36846 8.01852
2 5.62933 2.43047 10.0999
2 2.75039 8.91436 3.704
2 11.056 1.04304 7.78474
2 11.7331 10.9175 13.0918
2 0.842873 11.9329 8.209
2 2.2214 5.51207 0.700656
2 4.35413 11.6136 5.87028
2 8.79741 11.9164 1.43106
2 0.736227 2.07966 8.41545
2 1.79501 1.48537 0.761745
2 11.447 11.3037 3.11511
2 11.3587 6.01172 1.2985
2 11.4225 11.5045 6.26232
2 0.834292 9.19053 1.84431
2 3.46383 2.16158 8.62867
2 1.46954 5.18523 3.36431
2 2.67883 11.6641 9.19724
2 9.37355 10.4789 1.82761
2 10.9178 2.53571 9.81705
2 1.37578 10.6552 11.3562
2 1.59483 0.718569 4.27061
2 0.937134 0.994604 10.8824
2 6.92616 10.2319 4.88238
2 11.1739 11.2292 9.65853
2 5.12617 11.2472 3.73623
2 3.40171 3.37133 11.3829
2 1.05856 10.1264 5.33652
1 12.2036 8.26468 7.6934
1 3.98642 6.18072 1.34704
1 4.08258 4.96672 6.92714
1 7.77114 3.69847 0.654918
1 3.27573 8.31208 7.81577
1 6.58366 7.85743 1.36088
1 10.8421 5.30455 10.7951
1 4.20986 11.869 2.55347
1 1.65628 5.31973 5.09073
1 9.13871 1.06669 0.468307
1 10.4883 7.42271 4.64936
1 5.42784 10.5136 12.4566
1 10.9043 5.59116 6.84455
1 6.46307 1.17637 10.9231
1 1.75717 8.41134 5.15195
1 8.07899 7.02065 10.8631
1 7.39014 8.67909 5.25954
1 2.79788 10.4396 10.3831
1 2.13622 2.37142 3.73221
1 11.8945 2.57891 11.3108
1 2.47026 9.02557 2.04516
1 11.1486 11.1214 7.80581
1 9.34457 6.31319 1.76562
1 4.30504 3.17954 9.53276
1 0.683836 5.23967 1.97781
1 10.984 2.79884 8.28229
1 11.1894 10.0335 1.74736
1 1.87683 1.22239 9.21153
1 11.6089 11.4546 11.2307
1 0.432857 11.4765 4.50673
1 3.09843 1.97164 12.3241
1 5.70471 11.2881 5.02919
96
 Atoms. Timestep: 14000
2 9.01461 6.2408 3.43866
2 7.51783 6.25747 10.9074
2 9.17561 6.19733 1.1311
2 10.9874 0.788269 11.101
2 5.14492 5.79296 9.93096
2 4.48497 8.7108 3.74116
2 10.9204 7.34149 8.93834
2 4.51791 1.12224 0.590439
2 9.29171 7.54782 5.6745
2 5.11978 9.41789 1.24774
2 2.38849 2.45581 5.48295
2 5.60807 3.75843 3.68697
2 0.913083 6.83106 7.6297
2 5.09119 7.0367 11.5905
2 6.69137 6.75485 7.93231
2 5.47231 11.0655 3.08315
2 11.4469 7.11311 5.55736
2 6.25934 11.316 11.7479
2 1.84286 5.46396 5.30945
2 8.84464 1.07912 10.9844
2 0.804291 5.09858 9.82629
2 5.75461 4.45619 0.756594
2 8.95088 8.49782 7.40148
2 3.47081 7.53858 1.31764
2 11.3167 9.8905 7.26913
2 2.36288 8.00455 3.31408
2 6.05658 3.87364 8.70629
2 6.18474 6.11744 2.10062
2 1.80936 7.73703 10.309
2 7.07037 8.10079 2.79184
2 9.81065 5.41227 10.5612
2 5.55554 2.09387 3.7823
2 3.72435 5.01223 2.64766
2 10.1564 2.93028 11.6358
2 10.4519 8.96384 4.0461
2 3.96878 9.41543 11.0226
2 9.66389 2.81312 6.46786
2 6.29447 0.786209 9.13384
2 2.04397 8.3467 5.91897
2 0.663799 1.7397 7.03476
2 11.9546 9.71889 10.4694
2 1.42328 11.8403 8.29896
2 1.4141 6.00755 1.74081
2 7.41056 10.6523 2.55707
2 11.5656 0.870652 1.25469
2 11.9548 3.95759 5.96734
2 2.58384 3.75579 12.6778
2 4.56964 11.3821 6.11645
2 1.62559 4.57153 3.46446
2 1.3254 11.4086 6.01004
2 3.00867 10.6881 1.01578
2 4.15226 1.023 8.65204
2 7.44758 6.657 5.25677
2 2.41209 10.3296 9.55784
2 0.871689 10.7922 3.0187
2 10.7844 3.24452 8.75318
2 1.84468 8.99531 12.6557
2 2.92705 1.15961 2.63563
2 2.24668 1.69953 10.6597
2 9.37908 11.0223 3.1932
2 10.9094 11.4223 8.46224
2 8.76031 1.07748 1.01146
2 4.68696 2.55633 10.8241
2 3.0791 10.4095 5.27121
1 10.377 8.51962 8.28957
1 1.82367 7.73611 1.80933
1 5.72978 5.41768 8.28995
1 5.20072 4.70135 2.42711
1 0.988433 6.67148 9.21882
1 4.87769 7.94098 0.644677
1 9.20726 6.44488 11.4885
1 6.05583 9.6077 2.70659
1 1.64039 3.72118 4.85582
1 10.116 1.43628 12.4113
1 10.2792 7.40131 4.38877
1 4.54993 10.7675 12.0759
1 7.84562 7.2757 6.83722
1 7.41709 11.8851 10.724
1 1.37585 6.76398 5.95471
1 6.03359 5.79898 11.3334
1 10.8649 10.6992 3.59148
1 2.05043 8.98917 10.8259
1 4.56966 0.930695 3.45589
1 10.6392 3.92968 10.2561
1 2.86305 8.92114 4.58425
1 11.6778 11.5669 7.0884
1 7.7036 6.52749 2.38681
1 5.5928 2.27529 9.28187
1 2.3202 4.60355 2.0001
1 11.2403 3.19748 7.02729
1 1.79835 11.881 1.4382
1 2.69512 0.61027 9.42737
1 10.7654 10.6908 10.0562
1 2.85839 0.75084 5.72244
1 3.36265 2.39203 11.9412
1 8.18732 11.9697 2.32356
96
 Atoms. Timestep: 16000
2 10.0792 5.56187 3.17022
2 7.32719 7.59203 10.5952
2 9.56166 6.38293 11.7831
2 9.09907 11.0645 11.0201
2 3.98325 7.77655 10.1358
2 4.73353 8.41517 3.39773
2 9.09127 7.84502 9.41644
2 4.6309 3.32893 11.2847
2 8.57869 5.70235 5.81067
2 5.05361 8.90525 5.65209
2 1.53502 1.746 5.88896
2 6.33093 4.05988 11.9999
2 1.36267 5.80802 7.90946
2 5.57961 8.01187 12.0948
2 6.05098 5.2692 5.3224
2 4.26117 11.0394 5.73932
2 11.4019 6.12765 5.43283
2 5.83035 1.65695 11.2287
2 2.29621 4.72965 6.2493
2 8.0912 2.59691 10.3622
2 11.8386 4.49145 9.36436
2 4.62124 5.90697 1.38278
2 6.95695 8.60009 8.94961
2 3.04653 8.10507 1.5746
2 9.10091 9.24073 7.06397
2 2.16711 7.82687 3.74179
2 4.30906 3.48592 6.80426
2 7.48517 5.21961 2.31698
2 2.08105 7.1184 9.92441
2 8.44202 7.51874 2.26941
2 9.20852 5.45011 9.58541
2 5.41694 10.9928 7.84054
2 1.71824 6.38062 4.16971
2 10.0007 3.4771 10.2529
2 1.22015 9.56397 3.00219
2 6.22255 9.72081 10.8875
2 9.34993 4.0795 4.82508
2 5.07523 3.58771 9.27362
2 2.99262 7.73524 6.29161
2 9.14088 1.15642 5.83937
2 0.998324 9.32221 9.7155
2 10.8653 1.17054 10.6511
2 11.5878 6.68635 2.38266
2 8.67239 10.0719 3.25208
2 4.67547 2.38145 2.49195
2 11.0791 3.27839 6.34561
2 2.51126 4.44796 1.6789
2 2.72581 11.5296 7.89333
2 1.83594 4.39387 4.25377
2 11.6835 10.3958 6.29837
2 5.4006 10.982 1.42677
2 4.21712 1.59461 9.06258
2 7.78394 7.80457 5.15399
2 3.32651 9.42907 9.18597
2 3.10185 0.930107 3.13362
2 9.29181 3.50142 7.69809
2 1.50141 8.4904 11.9353
2 5.8086 11.1165 4.46078
2 4.61315 10.8552 10.5587
2 11.2282 0.881177 2.98809
2 10.6778 10.7076 8.26042
2 9.41422 1.63696 1.23365
2 3.14326 4.88568 8.85715
2 2.70313 10.1471 4.99753
1 8.31996 8.31752 8.14683
1 1.36621 8.00318 2.02173
1 5.09827 3.83147 5.24676
1 6.03049 4.86171 1.95742
1 1.76106 5.79824 9.2005
1 4.5343 7.47174 1.68771
1 8.62496 6.83353 10.6019
1 8.09521 8.72015 3.75887
1 1.51297 3.38712 5.60203
1 9.73591 2.12616 11.2683
1 10.1189 5.36831 4.75064
1 5.66995 11.1885 11.7269
1 7.1332 6.15265 5.99695
1 6.40849 2.98292 10.365
1 1.86002 6.28104 6.38566
1 5.8047 8.15587 10.2195
1 1.55983 11.3066 2.875
1 2.33821 8.59219 10.6075
1 5.80605 10.273 6.33143
1 10.1547 4.33887 8.92549
1 3.64634 8.66124 4.89816
1 9.87322 10.8643 6.74937
1 8.93018 6.02048 1.80072
1 3.76352 3.08478 8.49569
1 1.55952 5.27918 2.74834
1 9.36363 3.00055 6.12917
1 4.7989 0.701799 2.8435
1 3.90949 10.9977 8.79903
1 10.8121 10.5815 10.3194
1 2.1615 11.2235 6.2948
1 3.98614 3.69411 1.11885
1 9.47053 11.5155 2.58856
96
 Atoms. Timestep: 18000
2 8.78777 4.98482 4.09044
2 5.20458 6.72699 1.35391
2 8.36414 6.82768 11.2052
2 9.84883 9.89596 8.7117
2 2.1343 8.41485 11.3276
2 1.46603 5.90287 3.7414
2 9.86012 6.85377 8.5457
2 5.94832 3.84729 1.26676
2 8.87036 6.46302 5.92174
2 7.06926 10.5778 5.41699
2 2.83327 2.54393 2.09654
2 6.02546 5.40264 11.4236
2 2.63766 4.41627 6.44186
2 2.0345 6.30314 1.48336
2 4.4442 9.2044 7.8356
2 3.75894 10.6727 4.76436
2 4.90476 4.47679 5.7359
2 7.04432 0.821688 11.6005
2 0.937086 2.75912 5.10403
2 5.3594 2.48445 11.5664
2 1.96291 3.31363 10.1212
2 5.55812 5.06767 2.95856
2 11.526 8.77763 8.69918
2 11.1166 7.52419 0.77465
2 9.09564 11.7935 6.20419
2 11.1557 7.31258 4.86797
2 3.99712 6.82595 7.19655
2 7.36251 6.54974 1.74089
2 1.36745 1.57051 1.19009
2 6.79487 9.09583 11.7136
2 11.5118 5.32695 10.6325
2 5.01354 11.2077 6.69964
2 3.48759 4.60043 2.63958
2 7.60907 3.38913 10.7062
2 11.4093 10.1063 2.15483
2 4.67245 8.46643 1.53189
2 10.3194 4.39835 6.08602
2 5.61489 3.96021 8.74165
2 3.0341 7.58186 5.52526
2 11.5207 2.52538 6.94212
2 11.8267 10.6626 9.9876
2 10.0517 1.11637 10.7282
2 8.79926 8.89368 1.2521
2 9.05919 11.6975 3.57472
2 4.77346 0.878201 1.86105
2 11.2527 2.34052 2.933
2 4.98948 3.12285 3.06973
2 3.00794 10.6697 7.09432
2 3.3548 2.76083 4.00177
2 12.1184 11.1884 6.45316
2 5.48813 9.84742 12.0075
2 3.61211 1.25453 8.1739
2 9.12851 9.55935 5.48298
2 3.13141 9.75573 9.25625
2 2.86438 10.1207 1.85505
2 1.27063 5.07216 7.91412
2 11.0831 9.17861 11.2226
2 5.53203 10.2062 3.36431
2 4.8089 10.8891 9.70976
2 1.76929 11.8424 4.06519
2 10.0917 0.900902 8.35214
2 9.73057 1.88615 0.866959
2 1.39629 4.18593 1.05954
2 1.64676 8.90734 4.81908
1 10.1894 8.31774 8.01071
1 10.629 9.08818 1.20076
1 3.65305 8.31541 6.81754
1 6.11739 5.47527 1.37684
1 1.68371 2.72482 11.7073
1 1.85441 5.05048 2.35095
1 9.79814 6.16861 10.4767
1 8.42339 10.8268 4.84273
1 1.68429 2.45182 3.63695
1 8.211 1.87924 11.5347
1 8.74357 4.90435 5.62496
1 5.4109 11.6079 11.2218
1 9.96723 8.11059 5.86309
1 6.22247 3.99857 10.3838
1 4.08213 5.18367 7.07095
1 1.37968 6.95114 11.9355
1 1.50696 11.3571 2.01417
1 1.76624 9.33822 10.1014
1 5.37563 10.929 5.0956
1 1.55682 4.60712 9.5951
1 1.54006 7.35936 4.68048
1 10.9001 0.743333 6.8017
1 7.76405 7.96448 12.5422
1 4.48204 2.97077 7.95848
1 4.83931 4.20655 4.22103
1 1.14328 3.92378 6.50657
1 4.84089 9.93796 2.01884
1 4.20529 11.0125 8.18372
1 10.136 11.1011 9.49559
1 2.21193 10.486 5.47246
1 4.41393 2.85891 1.48944
1 9.85815 1.6346 2.54071
96
 Atoms. Timestep: 20000
2 7.26882 3.33721 7.60453
2 8.68759 2.50779 2.2339
2 5.07069 9.30758 10.2435
2 1.93991 11.4271 6.96878
2 2.50292 7.67763 11.1067
2 2.67602 6.16492 2.16623
2 11.3681 5.14238 9.67267
2 6.02703 1.76367 1.62408
2 8.1863 5.88279 5.91025
2 7.25269 10.7444 6.36038
2 4.27126 1.50497 4.61653
2 7.49683 3.0966 11.4693
2 2.30295 5.01054 7.45563
2 4.6727 6.41582 1.13282
2 3.52079 10.1599 6.52366
2 5.44138 3.03835 3.71058
2 4.61245 5.35773 5.73289
2 4.29139 2.72573 11.1876
2 1.17976 3.1809 6.63442
2 5.72062 3.61353 9.79345
2 1.69133 2.0257 11.4736
2 6.92158 4.2313 5.54956
2 2.21356 6.2366 9.44262
2 11.1704 9.76003 10.4592
2 10.2583 11.0569 5.91969
2 9.70424 7.56336 4.08755
2 3.80364 7.40562 5.51036
2 7.63035 8.89894 12.0977
2 3.38 1.49445 2.20192
2 6.59881 11.4339 10.2544
2 9.83968 6.65376 11.9345
2 4.70502 11.0422 7.93612
2 4.79068 5.15513 3.51277
2 7.22291 4.20574 1.70572
2 11.109 1.00023 3.28596
2 4.76405 8.52263 1.62529
2 9.54983 4.5688 7.35053
2 1.77181 3.31678 9.84338
2 1.02016 6.74836 4.76103
2 1.77528 11.791 4.60736
2 0.953119 7.6767 7.90745
2 7.782 6.87225 1.71484
2 8.62238 9.67731 10.2434
2 11.9007 2.70256 2.37387
2 5.04746 11.2393 2.68371
2 0.846823 3.49511 4.33988
2 6.25818 2.22207 7.52129
2 2.99907 1.80768 5.72918
2 3.65926 3.91331 4.77888
2 0.907058 9.60993 11.5244
2 5.26351 0.760481 9.72313
2 1.60238 11.7281 9.01273
2 9.57145 8.81816 5.86972
2 1.90326 9.45669 9.02317
2 2.77365 8.46054 1.46758
2 10.9718 2.34123 8.48831
2 10.4029 7.48723 9.61955
2 5.16444 9.26288 4.35707
2 3.47963 1.16904 8.83868
2 1.01169 11.1097 2.07451
2 11.6663 9.51392 6.1376
2 9.67192 4.74966 2.94537
2 3.97831 3.61452 1.25321
2 0.98448 7.71157 1.98316
1 1.61195 4.83568 9.18295
1 10.0464 8.99945 9.497
1 3.96603 8.94499 5.39718
1 7.15776 2.57157 1.04784
1 3.27159 2.26241 12.4401
1 4.199 5.12973 2.01911
1 10.3571 6.35301 10.4375
1 8.98214 10.1993 6.41093
1 1.9921 3.07875 5.31312
1 7.93441 5.25687 2.79083
1 7.74376 4.60262 6.68896
1 4.61186 2.21148 9.70721
1 9.44467 7.13449 5.64292
1 7.11728 3.97467 10.1377
1 3.51182 6.04686 6.56494
1 3.73487 7.79741 12.3219
1 1.645 1.1501 3.06313
1 2.04579 7.90879 9.50645
1 6.11372 11.8031 7.20276
1 8.80984 7.86765 0.786261
1 1.22171 6.29797 3.24672
1 0.846173 11.0237 5.79743
1 6.66192 9.80955 10.7986
1 0.739835 1.98568 10.0575
1 5.32 4.23194 4.75868
1 11.0917 3.66526 7.41091
1 5.18604 9.71397 2.67738
1 3.06443 10.8573 8.27737
1 11.6816 7.93774 6.26247
1 1.20404 9.39263 1.35348
1 4.91229 1.49132 3.17212
1 11.1759 4.05626 3.12698
96
 Atoms. Timestep: 22000
2 9.80368 10.4206 9.24854
2 9.71615 4.94833 11.6657
2 5.51064 7.54358 10.4562
2 2.03167 1.54486 6.90875
2 10.034 10.3355 12.0477
2 2.03675 8.39545 2.08268
2 0.856887 6.31028 9.47163
2 5.32942 1.56071 1.86517
2 9.00579 4.86154 7.21001
2 8.62225 7.10995 6.42424
2 3.84284 2.85261 2.45666
2 6.52605 1.59295 11.5883
2 4.10557 5.41193 8.44637
2 3.37008 8.11099 11.7614
2 2.66402 7.40765 4.5626
2 5.37907 1.9177 4.55894
2 5.02338 3.44261 6.43996
2 4.4395 3.13892 11.367
2 11.2259 3.44862 8.18627
2 6.47868 1.82259 9.00485
2 2.61261 4.23562 12.0602
2 7.33259 1.92688 6.66603
2 3.31747 7.73559 8.52923
2 8.46513 0.773651 10.7545
2 0.642599 1.49625 8.79982
2 8.95501 7.02095 4.46878
2 3.89903 5.18363 5.61014
2 7.38954 5.25329 11.4365
2 2.00563 4.78378 3.13641
2 5.54359 5.47006 9.30713
2 10.8819 7.60529 11.63
2 7.49435 10.9118 8.30886
2 1.55693 6.28416 11.3652
2 6.71023 3.47917 0.990621
2 8.19255 4.03665 5.16103
2 4.9814 8.49222 1.27073
2 9.36994 2.38198 7.32955
2 2.33787 4.42975 9.74143
2 0.552435 8.58534 4.26862
2 1.81588 1.72369 4.43597
2 2.59686 8.86473 6.10039
2 6.59502 8.39556 4.02671
2 7.84122 6.84976 8.92529
2 10.6476 3.3397 3.9041
2 4.46535 10.9437 2.99862
2 0.843301 3.27752 5.57412
2 9.4022 8.54815 8.11164
2 5.52777 0.684657 7.04077
2 2.20027 3.98882 7.45223
2 0.926688 2.69016 11.2105
2 9.15015 9.36721 6.07101
2 2.70803 2.37164 9.36255
2 5.68535 6.80484 5.44941
2 2.24802 10.5285 8.32785
2 5.538 10.1488 10.7191
2 8.85425 2.80513 9.41365
2 10.0429 5.8308 9.09769
2 4.08136 8.81659 4.1719
2 4.37082 0.609915 9.40246
2 12.1238 2.98928 2.0523
2 2.72292 10.5377 5.00393
2 8.42937 4.19451 2.13708
2 2.93084 5.91759 1.50437
2 10.586 8.21751 1.8672
1 2.58521 6.21035 9.51297
1 9.06795 6.71943 8.00532
1 4.00808 6.49802 4.96651
1 5.68008 2.36092 12.4216
1 2.773 4.08148 1.84416
1 2.06343 7.48886 0.612095
1 10.9474 6.12941 10.7548
1 9.57305 11.0938 10.6913
1 1.20836 2.91269 7.01211
1 8.31636 4.27288 0.497933
1 8.22604 3.466 6.88793
1 5.99381 11.5847 8.53641
1 7.41598 7.21157 5.12898
1 7.5199 2.20929 9.99047
1 3.70482 4.29246 6.9844
1 4.82879 8.5786 11.3434
1 1.00585 2.97605 3.81453
1 2.88751 8.9493 7.74691
1 8.8146 10.0509 7.5083
1 10.534 9.0015 12.3584
1 10.4343 8.08543 3.64446
1 2.41389 12.1195 5.58353
1 6.69628 6.31491 10.2837
1 2.52337 3.08706 10.762
1 5.69996 2.07557 6.08206
1 10.4318 2.42915 8.99465
1 5.27795 9.22049 3.22615
1 2.29625 0.893829 8.55008
1 2.21225 9.10876 4.60472
1 11.5159 2.57474 12.6184
1 4.36878 1.56972 3.12762
1 8.98739 4.0467 3.77724
96
 Atoms. Timestep: 24000
2 9.12853 8.07108 8.61689