LAMMPS (2 Aug 2023 - Update 3)
units metal
boundary p p p
atom_style full
pair_style tersoff
neighbor 2.0 bin
neigh_modify delay 1




read_data SiO.data
Reading data file ...
  orthogonal box = (0 0 0) to (12.589463 12.589463 13.222096)
  1 by 1 by 1 MPI processor grid
WARNING: Atom style in data file atom-ID molecule-ID atom-type q x y z differs from currently defined atom style full (../read_data.cpp:621)
  reading atoms ...
  96 atoms
Finding 1-2 1-3 1-4 neighbors ...
  special bond factors lj:    0        0        0       
  special bond factors coul:  0        0        0       
     0 = max # of 1-2 neighbors
     0 = max # of 1-3 neighbors
     0 = max # of 1-4 neighbors
     1 = max # of special neighbors
  special bonds CPU = 0.000 seconds
  read_data CPU = 0.003 seconds
replicate 1 1 1
Replication is creating a 1x1x1 = 1 times larger system...
  orthogonal box = (0 0 0) to (12.589463 12.589463 13.222096)
  1 by 1 by 1 MPI processor grid
  96 atoms
Finding 1-2 1-3 1-4 neighbors ...
  special bond factors lj:    0        0        0       
  special bond factors coul:  0        0        0       
     0 = max # of 1-2 neighbors
     0 = max # of 1-3 neighbors
     0 = max # of 1-4 neighbors
     1 = max # of special neighbors
  special bonds CPU = 0.000 seconds
  replicate CPU = 0.001 seconds

pair_coeff * *  /root/Desktop/host/job1/SiO.tersoff Si O
Reading tersoff potential file /root/Desktop/host/job1/SiO.tersoff with DATE: 2010-08-16



group Si type 1
32 atoms in group Si
group O type 2
64 atoms in group O
#create_bonds many SiO SiO 1 0.5 10

dump dmp all xyz 2000 dump.lammpstrj



variable apot equal pe
# first number: number of steps to get current temp
# second number: calculate average n number of temp read above.
# third number: temp record (this must be larger than the one above )

variable atemp equal temp
fix temp_info all ave/time 10 200 2000 v_atemp file temperature.dat

#The cutoff used for pairwise computation (any pair style) and the
#associated neighbor list is the maximum cutoff that any compute
#can use. Atoms don't know any info about their neighbors
#further away than that.

# compute coord number
compute coor12 Si coord/atom cutoff 2.5 group O
compute coor11 Si coord/atom cutoff 2.5 group Si
compute coor22 O coord/atom cutoff 2.0 group O

compute sumcoor12 all reduce ave c_coor12
compute sumcoor11 all reduce ave c_coor11
compute sumcoor22 all reduce ave c_coor22


fix 12coord all ave/time  10 200 2000 c_sumcoor12 file Si-O_coord_number.dat
fix 11coord all ave/time  10 200 2000  c_sumcoor11 file Si-Si_coord_number.dat
fix 22coord all ave/time  10 200 2000  c_sumcoor22 file O-O_coord_number.dat




# unit cell information
variable avol equal vol
variable alx equal lx
variable aly equal ly
variable alz equal lz
fix cell_info all ave/time 10 200 2000 v_avol v_alx v_aly v_alz file cell_volume.dat


fix potential_info all ave/time 10 200 2000 v_apot file potential-energy.dat
thermo 1000



velocity all create 6000 73921 mom yes rot no dist gaussian
fix npt1 all npt temp 6000 5000 0.1 iso 0 0  1
timestep 0.001
#run 500
run 80000
Neighbor list info ...
  update: every = 1 steps, delay = 1 steps, check = yes
  max neighbors/atom: 2000, page size: 100000
  master list distance cutoff = 4.8
  ghost atom cutoff = 4.8
  binsize = 2.4, bins = 6 6 6
  4 neighbor lists, perpetual/occasional/extra = 1 3 0
  (1) pair tersoff, perpetual
      attributes: full, newton on
      pair build: full/bin
      stencil: full/bin/3d
      bin: standard
  (2) compute coord/atom, occasional, copy from (1)
      attributes: full, newton on
      pair build: copy
      stencil: none
      bin: none
  (3) compute coord/atom, occasional, copy from (1)
      attributes: full, newton on
      pair build: copy
      stencil: none
      bin: none
  (4) compute coord/atom, occasional, copy from (1)
      attributes: full, newton on
      pair build: copy
      stencil: none
      bin: none
Per MPI rank memory allocation (min/avg/max) = 6.021 | 6.021 | 6.021 Mbytes
   Step          Temp          E_pair         E_mol          TotEng         Press          Volume    
         0   6000          -638.06385      0             -564.38556      73800.118      2095.6304    
      1000   5937.6183     -555.70343      0             -482.79117      26847.25       2282.4079    
      2000   5980.2826     -560.68277      0             -487.24661      19670.363      2324.4627    
      3000   5489.7282     -572.00783      0             -504.59554     -45.688075      2393.6192    
      4000   6411.9179     -553.35938      0             -474.62286     -9361.1295      2379.8092    
      5000   7084.9574     -556.71366      0             -469.71241      34134.081      2260.6223    
      6000   5771.6761     -541.62362      0             -470.74909      38199.951      2191.0294    
      7000   4548.2342     -543.48929      0             -487.63828     -53898.046      2202.587     
      8000   5541.867      -545.1295       0             -477.07696      27907.135      1965.8997    
      9000   5460.9734     -552.05637      0             -484.99718     -6975.5758      1987.5365    
     10000   6248.1916     -530.70015      0             -453.97414      7864.176       1862.9101    
     11000   6061.2948     -530.71735      0             -456.28638     -23056.85       1923.7665    
     12000   5840.0791     -534.46442      0             -462.74992     -8148.2862      1784.1369    
     13000   4882.275      -514.08863      0             -454.13569      19555.528      1711.9498    
     14000   5758.394      -545.00547      0             -474.29404      22077.083      1575.7054    
     15000   5606.0609     -542.51645      0             -473.67563     -6694.1176      1445.916     
     16000   7089.7545     -541.25069      0             -454.19054      40749.635      1437.0717    
     17000   5436.3703     -529.48342      0             -462.72635     -23188.719      1560.9061    
     18000   5307.0381     -532.27637      0             -467.10746      48254.08       1452.2514    
     19000   5638.2464     -518.42247      0             -449.18641     -21200.981      1552.0042    
     20000   5835.3002     -530.95795      0             -459.30213      13718.338      1505.7939    
     21000   5304.0997     -536.81997      0             -471.68714     -13767.321      1417.7615    
     22000   6135.3022     -538.44701      0             -463.10726      25730.198      1519.6796    
     23000   5934.3332     -535.05529      0             -462.18337      78400.007      1481.4845    
     24000   4983.3647     -539.97072      0             -478.77642      1755.8235      1631.9869    
     25000   5276.2205     -531.83732      0             -467.04685     -47706.204      1570.3876    
     26000   5789.8394     -543.90192      0             -472.80435     -17105.835      1549.7862    
     27000   5684.8441     -542.83697      0             -473.02871     -5723.9528      1632.4872    
     28000   6138.8729     -544.59567      0             -469.21207      22346.551      1621.8959    
     29000   5746.9456     -526.72435      0             -456.1535      -16592.196      1610.0842    
     30000   6596.3606     -540.93941      0             -459.93799      34194.201      1874.298     
     31000   5775.983      -551.89357      0             -480.96615     -29.514387      1631.4667    
     32000   5672.7062     -548.20145      0             -478.54225     -12634.84       1804.7753    
     33000   5378.1009     -549.91837      0             -483.87684      32643.445      1811.2489    
     34000   5608.9343     -546.0641       0             -477.18799     -30205.06       1675.2789    
     35000   5712.4018     -540.48027      0             -470.33361     -24098.264      1731.3975    
     36000   6746.6842     -540.93862      0             -458.09127      2404.7507      1493.491     
     37000   5727.2674     -542.98927      0             -472.66006      12247.59       1676.7278    
     38000   5886.9211     -531.43765      0             -459.14794     -47703.2        1673.1545    
     39000   5667.6809     -546.37744      0             -476.77994     -45768.774      1670.0518    
     40000   5101.5404     -550.33957      0             -487.69412     -3437.7648      1675.8053    
     41000   5310.3722     -536.59809      0             -471.38824     -24658.428      1699.6594    
     42000   5781.6078     -550.85476      0             -479.85827      15372.881      1719.7166    
     43000   5446.4209     -543.33879      0             -476.4583      -14929.483      1509.4008    
     44000   5386.5156     -547.95675      0             -481.81188      60955.361      1555.6077    
     45000   4956.7318     -528.07754      0             -467.21029     -2539.3585      1598.9162    
     46000   5973.0651     -540.04302      0             -466.69549      9833.9421      1651.9055    
     47000   5626.893      -541.25383      0             -472.15719     -5848.9779      1573.1471    
     48000   5593.258      -532.79752      0             -464.11391      6010.3385      1527.7712    
     49000   5221.3672     -533.03534      0             -468.91844     -9906.452       1693.7768    
     50000   5341.5591     -536.10418      0             -470.51136      52387.094      1436.5167    
     51000   5377.1794     -543.55537      0             -477.52515     -20025.995      1485.4553    
     52000   4891.2245     -553.46564      0             -493.40281      54186.914      1482.6842    
     53000   4942.0693     -560.51093      0             -499.82373     -35201.061      1388.8475    
     54000   5679.0932     -552.51321      0             -482.77557      640.74525      1372.6564    
     55000   5596.0894     -546.53294      0             -477.81456     -37193.962      1406.5193    
     56000   5405.7925     -545.30261      0             -478.92102      11248.386      1320.3274    
     57000   5501.9752     -550.93314      0             -483.37046      31233.735      1471.797     
     58000   4651.4359     -571.23628      0             -514.11798      41621.503      1446.0513    
     59000   4451.035      -548.51187      0             -493.85444     -24272.983      1482.137     
     60000   6263.0471     -562.18351      0             -485.27508     -28510.172      1425.6286    
     61000   5354.2543     -544.36654      0             -478.61783     -51634.75       1478.5601    
     62000   5449.6886     -555.82396      0             -488.90334      65843.984      1351.9171    
     63000   5019.3638     -559.38393      0             -497.74758     -13670.287      1392.9018    
     64000   4717.5306     -554.96884      0             -497.03891     -1506.2129      1535.2115    
     65000   5377.0993     -553.10288      0             -487.07364      44511.489      1608.7591    
     66000   4447.7949     -551.30205      0             -496.6844      -8955.6206      1650.059     
     67000   5255.5909     -545.64236      0             -481.10521      27831.345      1528.0235    
     68000   5142.3673     -553.0859       0             -489.9391      -16918.811      1557.7006    
     69000   4135.3395     -549.93205      0             -499.15126     -881.40518      1646.2728    
     70000   5326.5206     -549.86895      0             -484.4608       14651.891      1479.4338    
     71000   4692.043      -545.64223      0             -488.02528      15045.634      1485.9099    
     72000   5648.6027     -560.92814      0             -491.56492      334.03282      1530.1487    
     73000   5331.1638     -554.17447      0             -488.70931      248.73358      1534.4146    
     74000   4879.0392     -551.51542      0             -491.60222      27657.433      1627.4759    
     75000   4624.8731     -540.59748      0             -483.80536     -15821.899      1787.2006    
     76000   4966.2491     -550.61046      0             -489.62634     -7943.4265      1693.1757    
     77000   5309.3131     -555.44551      0             -490.24867      59223.086      1624.1519    
     78000   5194.7478     -547.66256      0             -483.87255      9114.8737      1484.6154    
     79000   4639.5267     -549.6584       0             -492.68634      15182.42       1562.1166    
     80000   5260.3083     -562.21642      0             -497.62134     -36117.793      1614.4913    
Loop time of 6.63644 on 1 procs for 80000 steps with 96 atoms

Performance: 1041.522 ns/day, 0.023 hours/ns, 12054.651 timesteps/s, 1.157 Matom-step/s
99.0% CPU use with 1 MPI tasks x no OpenMP threads

MPI task timing breakdown:
Section |  min time  |  avg time  |  max time  |%varavg| %total
---------------------------------------------------------------
Pair    | 5.4903     | 5.4903     | 5.4903     |   0.0 | 82.73
Bond    | 0.0026375  | 0.0026375  | 0.0026375  |   0.0 |  0.04
Neigh   | 0.44961    | 0.44961    | 0.44961    |   0.0 |  6.77
Comm    | 0.20607    | 0.20607    | 0.20607    |   0.0 |  3.11
Output  | 0.009986   | 0.009986   | 0.009986   |   0.0 |  0.15
Modify  | 0.44224    | 0.44224    | 0.44224    |   0.0 |  6.66
Other   |            | 0.03561    |            |       |  0.54

Nlocal:             96 ave          96 max          96 min
Histogram: 1 0 0 0 0 0 0 0 0 0
Nghost:            490 ave         490 max         490 min
Histogram: 1 0 0 0 0 0 0 0 0 0
Neighs:              0 ave           0 max           0 min
Histogram: 1 0 0 0 0 0 0 0 0 0
FullNghs:         2568 ave        2568 max        2568 min
Histogram: 1 0 0 0 0 0 0 0 0 0

Total # of neighbors = 2568
Ave neighs/atom = 26.75
Ave special neighs/atom = 0
Neighbor list builds = 3756
Dangerous builds = 0

fix npt1 all npt temp 5000 4000 0.1 iso 0 0 1
run 80000
Per MPI rank memory allocation (min/avg/max) = 8.549 | 8.549 | 8.549 Mbytes
   Step          Temp          E_pair         E_mol          TotEng         Press          Volume    
     80000   5260.3083     -562.21642      0             -497.62134     -36117.793      1614.4913    
     81000   4628.8179     -555.78404      0             -498.94348     -22245.493      1723.5643    
     82000   4971.3047     -549.00746      0             -487.96126      55634.716      1453.0088    
     83000   4821.7952     -565.18202      0             -505.97175      29739.936      1456.9252    
     84000   4605.25       -568.90268      0             -512.35153     -17626.559      1540.9261    
     85000   5448.5708     -556.78834      0             -489.88145     -48733.544      1487.0125    
     86000   5381.8738     -550.11231      0             -484.02444     -56900.756      1570.9095    
     87000   4932.1662     -555.13913      0             -494.57354     -58577.963      1592.8323    
     88000   5036.1018     -567.82339      0             -505.9815      -27161.982      1578.0428    
     89000   4908.0579     -558.65004      0             -498.3805       32769.248      1469.7388    
     90000   4811.622      -553.34911      0             -494.26377      23603.9        1494.3934    
     91000   4885.2045     -560.06344      0             -500.07452      7632.3924      1507.1485    
     92000   5020.1051     -558.04299      0             -496.39754     -33068.873      1554.1578    
     93000   5252.2262     -569.58572      0             -505.08988      42451.978      1542.7293    
     94000   4914.5513     -563.08626      0             -502.73698      8655.3096      1612.4779    
     95000   5244.5993     -557.74059      0             -493.33842     -36130.711      1657.9713    
     96000   5124.6489     -561.1798       0             -498.25057      22173.749      1399.2127    
     97000   5215.3009     -546.80584      0             -482.76343     -5295.9655      1472.3717    
     98000   4850.2211     -555.87823      0             -496.3189       99600.092      1362.1263    
     99000   3932.3296     -561.93057      0             -513.64269      18972.337      1467.0514    
    100000   4285.1246     -560.79892      0             -508.17881     -35193.392      1561.8371    
    101000   4925.5379     -556.4982       0             -496.014        3675.0341      1558.3493    
    102000   4420.7111     -562.32713      0             -508.04207     -10848.549      1605.9136    
    103000   4717.1539     -552.24575      0             -494.32045     -3515.7081      1606.8896    
    104000   4702.0095     -542.91355      0             -485.17422     -2071.5587      1792.3515    
    105000   4688.5131     -561.57024      0             -503.99664     -8340.0925      1632.7095    
    106000   4430.5775     -552.41505      0             -498.00883      4024.4917      1603.4372    
    107000   4705.0061     -561.6637       0             -503.88757      6873.8006      1546.9762    
    108000   5346.9907     -561.21913      0             -495.55961      3934.2696      1650.6636    
    109000   4123.1187     -562.73481      0             -512.1041      -10014.371      1677.6576    
    110000   5001.4795     -560.032        0             -498.61526     -21089.538      1638.0014    
    111000   5157.1451     -557.48141      0             -494.15314      1612.1296      1664.4933    
    112000   4202.017      -557.15817      0             -505.55861      47134.932      1403.9964    
    113000   4444.7889     -569.49718      0             -514.91644      63455.923      1552.0089    
    114000   4316.44       -556.58701      0             -503.58236      8599.7701      1645.5516    
    115000   4591.8893     -565.45015      0             -509.06306      14016.681      1543.568     
    116000   4265.9797     -552.34533      0             -499.96032      33758.112      1538.2799    
    117000   4882.0233     -568.55896      0             -508.60911     -12698.904      1650.6378    
    118000   4831.947      -572.78234      0             -513.44742      17181.495      1673.2462    
    119000   4419.8013     -567.82616      0             -513.55226     -12388.494      1600.0358    
    120000   4338.7784     -565.6195       0             -512.34055      18572.231      1630.5294    
    121000   4019.6176     -558.59576      0             -509.236        19257.725      1609.5768    
    122000   4587.5001     -562.48967      0             -506.15648      19344.054      1600.2067    
    123000   4214.254      -557.64687      0             -505.89704      57994.807      1572.8186    
    124000   4527.4393     -566.24202      0             -510.64636     -13890.057      1665.4969    
    125000   4410.1265     -573.95543      0             -519.80034      13299.604      1599.2052    
    126000   4379.8466     -569.92774      0             -516.14447      27511.161      1559.1544    
    127000   4473.276      -567.71298      0             -512.78243      7306.1857      1505.522     
    128000   3495.0357     -566.24097      0             -523.32293     -19879.175      1554.0452    
    129000   4636.0644     -574.56454      0             -517.635        16921.909      1445.0749    
    130000   4559.828      -568.57155      0             -512.57817     -21650.395      1516.7989    
    131000   4357.5083     -573.49628      0             -519.98733      25199.698      1559.5243    
    132000   3936.9419     -572.96621      0             -524.62169     -31380.658      1624.3811    
    133000   4585.2455     -565.57422      0             -509.26871      33397.364      1569.3497    
    134000   3878.5335     -571.55287      0             -523.92559      18258.796      1555.9208    
    135000   4690.8262     -562.94776      0             -505.34575     -34683.705      1549.2535    
    136000   4158.6026     -573.11606      0             -522.04961     -10339.904      1518.6494    
    137000   4885.4013     -565.8463       0             -505.85497      43067.675      1498.7919    
    138000   3969.3944     -567.75284      0             -519.00981     -63300.285      1550.1653    
    139000   4213.7705     -568.44471      0             -516.70082      16663.895      1462.6325    
    140000   4646.1799     -564.00697      0             -506.95321     -13145.643      1515.9545    
    141000   4460.2174     -576.16362      0             -521.39343      71317.094      1481.1017    
    142000   4587.3609     -554.93783      0             -498.60635     -26772.108      1489.7124    
    143000   4136.0053     -562.83751      0             -512.04854     -20550.946      1554.3266    
    144000   4052.5031     -576.64558      0             -526.882        11928.812      1369.9401    
    145000   4313.9757     -567.82075      0             -514.84636     -14865.439      1420.8163    
    146000   3824.724      -574.28082      0             -527.31431      31808.997      1438.7711    
    147000   5023.7938     -565.37299      0             -503.68224     -17569.489      1427.2082    
    148000   4418.3156     -563.92184      0             -509.66619      72001.154      1365.6227    
    149000   3670.5051     -560.64092      0             -515.56817      29265.979      1456.379     
    150000   4010.0369     -564.83342      0             -515.59131     -34434.791      1576.9474    
    151000   4053.9491     -568.64524      0             -518.8639      -42063.836      1500.2079    
    152000   4162.2323     -574.47526      0             -523.36424      241.47557      1397.8485    
    153000   4225.963      -572.35509      0             -520.46147     -10813.011      1432.0187    
    154000   3968.6101     -571.07119      0             -522.33779      10991.218      1430.5851    
    155000   3831.7922     -564.76285      0             -517.70954     -51118.595      1447.9598    
    156000   4108.2465     -575.8823       0             -525.43421      47901.345      1381.7953    
    157000   4069.4175     -570.80931      0             -520.83803     -6408.7548      1477.3048    
    158000   3645.4218     -572.80386      0             -528.03912      10540.541      1557.5111    
    159000   4917.7696     -574.20999      0             -513.82119      13467.812      1479.7583    
    160000   3815.1418     -576.8395       0             -529.99065      15893.523      1444.8901    
Loop time of 6.46228 on 1 procs for 80000 steps with 96 atoms

Performance: 1069.592 ns/day, 0.022 hours/ns, 12379.535 timesteps/s, 1.188 Matom-step/s
99.4% CPU use with 1 MPI tasks x no OpenMP threads

MPI task timing breakdown:
Section |  min time  |  avg time  |  max time  |%varavg| %total
---------------------------------------------------------------
Pair    | 5.3832     | 5.3832     | 5.3832     |   0.0 | 83.30
Bond    | 0.0024641  | 0.0024641  | 0.0024641  |   0.0 |  0.04
Neigh   | 0.40263    | 0.40263    | 0.40263    |   0.0 |  6.23
Comm    | 0.20191    | 0.20191    | 0.20191    |   0.0 |  3.12
Output  | 0.0097798  | 0.0097798  | 0.0097798  |   0.0 |  0.15
Modify  | 0.42907    | 0.42907    | 0.42907    |   0.0 |  6.64
Other   |            | 0.03319    |            |       |  0.51

Nlocal:             96 ave          96 max          96 min
Histogram: 1 0 0 0 0 0 0 0 0 0
Nghost:            544 ave         544 max         544 min
Histogram: 1 0 0 0 0 0 0 0 0 0
Neighs:              0 ave           0 max           0 min
Histogram: 1 0 0 0 0 0 0 0 0 0
FullNghs:         2946 ave        2946 max        2946 min
Histogram: 1 0 0 0 0 0 0 0 0 0

Total # of neighbors = 2946
Ave neighs/atom = 30.6875
Ave special neighs/atom = 0
Neighbor list builds = 3309
Dangerous builds = 0

fix npt1 all npt temp 4000 4000 0.1 iso 0 0 1
run 80000
Per MPI rank memory allocation (min/avg/max) = 8.549 | 8.549 | 8.549 Mbytes
   Step          Temp          E_pair         E_mol          TotEng         Press          Volume    
    160000   3815.1418     -576.8395       0             -529.99065      15893.523      1444.8901    
    161000   3960.6412     -572.03528      0             -523.39974     -18967.713      1443.7496    
    162000   3854.4086     -572.01339      0             -524.68236      7260.3351      1391.0888    
    163000   5081.3809     -575.16851      0             -512.77061      77821.434      1412.318     
    164000   4018.0518     -569.1717       0             -519.83117      33893.414      1451.9639    
    165000   3771.0597     -568.14996      0             -521.84243     -30533.451      1489.4189    
    166000   3480.5939     -576.40226      0             -533.66156     -14833.164      1548.5813    
    167000   4403.5237     -563.61076      0             -509.53675     -26054.723      1532.6938    
    168000   3786.0877     -575.29563      0             -528.80356     -21812.746      1452.5016    
    169000   4470.5393     -572.83676      0             -517.93982      9828.5194      1450.1142    
    170000   4138.5674     -572.69952      0             -521.8791       10724.629      1395.9439    
    171000   4056.2082     -577.14631      0             -527.33723      16121.794      1443.4035    
    172000   3536.7888     -570.86231      0             -527.43156      28554.644      1440.6149    
    173000   4019.3911     -575.59375      0             -526.23678     -21449.496      1606.7343    
    174000   4823.3542     -575.44317      0             -516.21376     -36399.29       1560.7717    
    175000   3955.9518     -580.39482      0             -531.81686     -27926.176      1505.1639    
    176000   3564.5326     -574.66252      0             -530.89108     -17662.281      1389.7885    
    177000   3910.3808     -567.55056      0             -519.5322       63647.337      1425.5085    
    178000   3645.5785     -577.86224      0             -533.09558     -14553.933      1348.8432    
    179000   4314.1064     -578.75562      0             -525.77963      100014.52      1406.1927    
    180000   4180.131      -579.58643      0             -528.25561      34462.872      1392.7524    
    181000   3653.5127     -564.66504      0             -519.80095     -9309.9879      1473.1206    
    182000   4273.6226     -566.54754      0             -514.06867     -11918.465      1429.698     
    183000   3838.5956     -567.76914      0             -520.63229      262.74584      1526.6179    
    184000   3878.4407     -573.42485      0             -525.7987      -11774.099      1494.8356    
    185000   4230.1861     -569.75167      0             -517.8062      -4072.1664      1570.7862    
    186000   4699.961      -570.34137      0             -512.6272       39393.474      1461.7317    
    187000   3651.2705     -567.7226       0             -522.88605      2809.5983      1525.3547    
    188000   4389.5786     -573.8127       0             -519.90993      24576.561      1622.836     
    189000   4178.9608     -567.1842       0             -515.86776     -16074.335      1538.4172    
    190000   4336.1378     -569.37655      0             -516.13002      27402.536      1454.0967    
    191000   3861.1997     -574.40699      0             -526.99256     -18812.71       1508.5259    
    192000   4152.1964     -565.62236      0             -514.63457      4479.7848      1494.4838    
    193000   4089.5483     -575.38553      0             -525.16705      10312.113      1472.8557    
    194000   3583.295      -575.6813       0             -531.67946     -21938.312      1513.7149    
    195000   4473.8659     -571.17572      0             -516.23793      31784.167      1476.2368    
    196000   3788.8246     -566.87692      0             -520.35124      30270.043      1433.3193    
    197000   3607.1951     -567.86606      0             -523.57073      13867.544      1470.6646    
    198000   3597.6424     -571.81352      0             -527.6355      -10458.751      1464.2508    
    199000   4616.2426     -571.26344      0             -514.5773      -3398.5062      1446.4717    
    200000   4191.5248     -564.73252      0             -513.2618      -17946.346      1462.7188    
    201000   4034.487      -569.21229      0             -519.66995     -51209.134      1516.1776    
    202000   3825.3122     -557.35248      0             -510.37874      34018.39       1435.0221    
    203000   4155.7536     -573.83509      0             -522.80362      23729.266      1345.4344    
    204000   4236.3999     -566.58629      0             -514.56451      44732.241      1391.3749    
    205000   3893.0822     -570.70216      0             -522.89622      50945.764      1390.479     
    206000   3650.6893     -577.43238      0             -532.60296     -9596.3021      1415.7329    
    207000   4507.9619     -578.86059      0             -523.50411      22653.997      1386.5211    
    208000   3563.8496     -574.61994      0             -530.85689     -23325.859      1360.3252    
    209000   4160.0481     -579.26338      0             -528.17918     -14059.061      1294.9333    
    210000   3282.8659     -575.80977      0             -535.49712     -17059.923      1296.6348    
    211000   4280.9426     -575.47324      0             -522.90449     -10261.823      1408.3144    
    212000   4104.095      -575.06725      0             -524.67014      13803.587      1452.9198    
    213000   3961.4059     -573.61723      0             -524.97229      31991.144      1473.8768    
    214000   4199.7351     -568.1039       0             -516.53235     -18810.804      1466.9984    
    215000   4065.2255     -574.52616      0             -524.60635      41847.073      1418.134     
    216000   3647.2889     -563.65005      0             -518.86239      9605.1428      1372.3186    
    217000   3427.2996     -569.30846      0             -527.2222       6819.1827      1430.2416    
    218000   4582.1318     -574.23614      0             -517.96888      5038.456       1454.9028    
    219000   4314.2459     -567.26236      0             -514.28465      6514.5557      1422.7557    
    220000   3965.524      -565.01317      0             -516.31767      10161.981      1455.1295    
    221000   4338.8151     -571.483        0             -518.20359     -29547.38       1305.3542    
    222000   4007.024      -572.80433      0             -523.59923      41143.697      1313.0634    
    223000   3955.2044     -569.36574      0             -520.79696     -9530.0731      1370.3471    
    224000   4035.5086     -578.28191      0             -528.72702     -13791.29       1264.549     
    225000   4569.1327     -562.35873      0             -506.25109     -7931.2448      1268.3936    
    226000   3912.7081     -560.00615      0             -511.95921      39577.961      1273.943     
    227000   3724.0154     -569.58571      0             -523.85587     -20252.883      1372.7129    
    228000   4154.4873     -563.2463       0             -512.23039     -1620.4165      1323.9272    
    229000   3858.6663     -573.53111      0             -526.14779      13493.85       1353.8667    
    230000   4235.3717     -578.32003      0             -526.31088      1832.6679      1225.9276    
    231000   4359.8159     -580.00915      0             -526.47186     -2145.7761      1245.9009    
    232000   4185.129      -574.38843      0             -522.99624     -70189.547      1322.003     
    233000   4018.6746     -577.6049       0             -528.25672      2331.1584      1272.8269    
    234000   3557.9422     -582.82737      0             -539.13686     -31714          1284.8928    
    235000   4792.9952     -565.61451      0             -506.7579       43542.686      1242.3624    
    236000   4003.6782     -571.94952      0             -522.7855       47851.176      1255.0893    
    237000   3602.1168     -575.7546       0             -531.52164     -22420.903      1284.3574    
    238000   4283.375      -570.928        0             -518.32938     -49405.233      1346.9071    
    239000   4048.1809     -578.35434      0             -528.64384      21975.266      1280.5211    
    240000   4463.4398     -575.88021      0             -521.07044     -10229.848      1285.2356    
Loop time of 6.61697 on 1 procs for 80000 steps with 96 atoms

Performance: 1044.586 ns/day, 0.023 hours/ns, 12090.120 timesteps/s, 1.161 Matom-step/s
99.2% CPU use with 1 MPI tasks x no OpenMP threads

MPI task timing breakdown:
Section |  min time  |  avg time  |  max time  |%varavg| %total
---------------------------------------------------------------
Pair    | 5.5285     | 5.5285     | 5.5285     |   0.0 | 83.55
Bond    | 0.0026038  | 0.0026038  | 0.0026038  |   0.0 |  0.04
Neigh   | 0.38546    | 0.38546    | 0.38546    |   0.0 |  5.83
Comm    | 0.20345    | 0.20345    | 0.20345    |   0.0 |  3.07
Output  | 0.010729   | 0.010729   | 0.010729   |   0.0 |  0.16
Modify  | 0.45284    | 0.45284    | 0.45284    |   0.0 |  6.84
Other   |            | 0.03338    |            |       |  0.50

Nlocal:             96 ave          96 max          96 min
Histogram: 1 0 0 0 0 0 0 0 0 0
Nghost:            550 ave         550 max         550 min
Histogram: 1 0 0 0 0 0 0 0 0 0
Neighs:              0 ave           0 max           0 min
Histogram: 1 0 0 0 0 0 0 0 0 0
FullNghs:         3254 ave        3254 max        3254 min
Histogram: 1 0 0 0 0 0 0 0 0 0

Total # of neighbors = 3254
Ave neighs/atom = 33.895833
Ave special neighs/atom = 0
Neighbor list builds = 3043
Dangerous builds = 0

fix npt1 all npt temp 4000 3000 0.1 iso 0 0  1
run 80000
Per MPI rank memory allocation (min/avg/max) = 8.549 | 8.549 | 8.549 Mbytes
   Step          Temp          E_pair         E_mol          TotEng         Press          Volume    
    240000   4463.4398     -575.88021      0             -521.07044     -10229.848      1285.2356    
    241000   3897.5175     -573.98223      0             -526.12183     -13094.409      1361.5663    
    242000   4207.8853     -573.94795      0             -522.27632      30278.807      1378.8444    
    243000   4318.2149     -572.19004      0             -519.1636       5222.0035      1339.5436    
    244000   3711.0931     -569.82213      0             -524.25097     -11825.505      1352.1485    
    245000   3131.9635     -586.14278      0             -547.68317      16318.294      1258.2677    
    246000   4112.7245     -577.35115      0             -526.84807      1264.3064      1326.4403    
    247000   3760.8447     -576.56897      0             -530.38687      20125.332      1389.7854    
    248000   3927.4372     -573.96059      0             -525.73278     -29260.166      1360.4952    
    249000   4039.0785     -573.85229      0             -524.25356      1286.0315      1395.7571    
    250000   3763.9886     -578.16243      0             -531.94173      12598.788      1426.2443    
    251000   3684.619      -579.46276      0             -534.2167      -34737.798      1414.2839    
    252000   3964.7659     -575.92767      0             -527.24148     -1267.5014      1329.0301    
    253000   3452.8455     -576.77647      0             -534.37651     -23795.933      1412.1269    
    254000   3396.1662     -576.93315      0             -535.2292       24394.349      1425.7698    
    255000   3582.1633     -579.12179      0             -535.13385     -37611.176      1412.552     
    256000   3815.2837     -578.51971      0             -531.66912     -27285.77       1409.8246    
    257000   3671.3504     -568.75854      0             -523.6754      -59779.858      1413.3553    
    258000   3762.0308     -581.71719      0             -535.52053      51307.014      1330.312     
    259000   3993.3531     -587.80874      0             -538.77151     -7819.2461      1333.9284    
    260000   3461.8554     -576.96705      0             -534.45646      4214.2982      1357.1415    
    261000   3911.5355     -576.69651      0             -528.66398      20757.59       1300.6428    
    262000   3283.7023     -582.08782      0             -541.76489      40550.477      1296.3435    
    263000   3885.3909     -573.41186      0             -525.70037     -16824.432      1439.2107    
    264000   3604.4424     -583.05066      0             -538.78914     -27783.484      1408.6909    
    265000   3061.2934     -572.64049      0             -535.04868      44558.25       1349.1895    
    266000   3647.3138     -577.48784      0             -532.69987      29984.251      1350.2627    
    267000   3514.855      -578.32626      0             -535.16484      54551.825      1428.0605    
    268000   3420.6466     -573.76012      0             -531.75556     -51812.323      1458.1648    
    269000   3913.8986     -572.12908      0             -524.06752     -40981.89       1430.5062    
    270000   3821.498      -575.76373      0             -528.83683      30582.632      1371.7578    
    271000   3790.5623     -582.71633      0             -536.16931      2965.0252      1369.7771    
    272000   4285.4251     -576.60751      0             -523.98371      26721.823      1466.1321    
    273000   3855.1308     -575.60807      0             -528.26817     -19985.273      1535.7796    
    274000   3710.0186     -579.13986      0             -533.58189     -22265.595      1558.7506    
    275000   3646.8124     -585.14559      0             -540.36378     -7278.3062      1529.8112    
    276000   3899.4355     -583.84287      0             -535.95892      39419.226      1492.0808    
    277000   3597.0809     -578.29692      0             -534.12579     -11244.238      1464.3526    
    278000   3556.5651     -582.60577      0             -538.93217      16929.277      1439.9686    
    279000   3905.748      -583.39071      0             -535.42924     -22885.407      1451.8927    
    280000   3623.9545     -584.6941       0             -540.19298     -38132.551      1491.8829    
    281000   2977.9847     -576.56555      0             -539.99675     -18028.782      1493.9615    
    282000   3440.9462     -586.29283      0             -544.039       -3813.7853      1505.0979    
    283000   3389.3619     -590.27075      0             -548.65035      22277.242      1469.1175    
    284000   3656.7331     -579.75024      0             -534.8466      -3166.9754      1514.9517    
    285000   2739.2474     -578.89855      0             -545.26137     -7476.8402      1445.4524    
    286000   3825.4435     -580.48745      0             -533.5121       14881.048      1481.6516    
    287000   3497.7799     -587.3607       0             -544.40896     -30429.355      1514.3634    
    288000   3319.5795     -585.32121      0             -544.55773      7765.6009      1526.7179    
    289000   2979.9008     -588.61619      0             -552.02387     -4744.939       1514.7533    
    290000   3350.629      -588.47756      0             -547.33279     -16415.388      1507.2206    
    291000   3765.9374     -579.4791       0             -533.23447     -15030.334      1642.8633    
    292000   3051.988      -587.60517      0             -550.12763     -4665.6742      1614.3785    
    293000   3753.1321     -589.64595      0             -543.55856      15247.687      1599.3236    
    294000   3221.9628     -585.57817      0             -546.01339     -2482.4293      1579.2092    
    295000   3188.3185     -587.14491      0             -547.99327     -9268.6799      1593.3272    
    296000   3855.0847     -588.77835      0             -541.43901      10016.887      1527.8304    
    297000   3102.6165     -586.97475      0             -548.87551      13616.445      1510.9953    
    298000   3428.1383     -585.12548      0             -543.02893      21052.024      1524.6015    
    299000   2888.9306     -586.10005      0             -550.62481     -23963.28       1555.9167    
    300000   3171.9537     -586.38492      0             -547.43424      31370.059      1522.982     
    301000   3205.0037     -589.56911      0             -550.21258     -1984.058       1539.2296    
    302000   3493.8035     -592.12436      0             -549.22145      34833.972      1541.3078    
    303000   3558.9529     -591.57409      0             -547.87117      1926.4065      1532.7187    
    304000   3023.4714     -592.27082      0             -555.14346     -14757.519      1559.4278    
    305000   3019.4633     -591.35874      0             -554.2806      -12065.551      1576.987     
    306000   2876.0172     -590.09743      0             -554.78077     -4295.723       1554.359     
    307000   3661.0368     -586.2231       0             -541.26662      23447.391      1521.0274    
    308000   2966.7609     -591.29457      0             -554.86359     -15613.6        1538.3746    
    309000   3484.014      -595.14414      0             -552.36144      18083.898      1511.6709    
    310000   3207.0656     -590.42475      0             -551.0429       16082.549      1536.6536    
    311000   2905.0746     -591.73766      0             -556.06417      5619.9075      1574.437     
    312000   3527.2458     -590.06895      0             -546.75538     -6028.618       1600.5843    
    313000   2822.2969     -586.63156      0             -551.97456     -18109.79       1628.7331    
    314000   2865.4918     -588.91223      0             -553.72481      3476.6457      1600.5069    
    315000   2706.0988     -594.71151      0             -561.48139     -31128.378      1636.1202    
    316000   3205.5916     -590.09776      0             -550.73401     -3120.7332      1571.1464    
    317000   2785.9425     -594.0675       0             -559.85692     -41168.734      1591.0467    
    318000   2994.5392     -591.06417      0             -554.29209     -2174.7505      1586.9831    
    319000   2862.3722     -586.91001      0             -551.7609      -17034.904      1576.6925    
    320000   3095.4639     -590.73371      0             -552.7223       48716.804      1509.6526    
Loop time of 6.2799 on 1 procs for 80000 steps with 96 atoms

Performance: 1100.654 ns/day, 0.022 hours/ns, 12739.056 timesteps/s, 1.223 Matom-step/s
99.3% CPU use with 1 MPI tasks x no OpenMP threads

MPI task timing breakdown:
Section |  min time  |  avg time  |  max time  |%varavg| %total
---------------------------------------------------------------
Pair    | 5.2595     | 5.2595     | 5.2595     |   0.0 | 83.75
Bond    | 0.0025057  | 0.0025057  | 0.0025057  |   0.0 |  0.04
Neigh   | 0.34552    | 0.34552    | 0.34552    |   0.0 |  5.50
Comm    | 0.19629    | 0.19629    | 0.19629    |   0.0 |  3.13
Output  | 0.010192   | 0.010192   | 0.010192   |   0.0 |  0.16
Modify  | 0.43419    | 0.43419    | 0.43419    |   0.0 |  6.91
Other   |            | 0.03174    |            |       |  0.51

Nlocal:             96 ave          96 max          96 min
Histogram: 1 0 0 0 0 0 0 0 0 0
Nghost:            486 ave         486 max         486 min
Histogram: 1 0 0 0 0 0 0 0 0 0
Neighs:              0 ave           0 max           0 min
Histogram: 1 0 0 0 0 0 0 0 0 0
FullNghs:         2770 ave        2770 max        2770 min
Histogram: 1 0 0 0 0 0 0 0 0 0

Total # of neighbors = 2770
Ave neighs/atom = 28.854167
Ave special neighs/atom = 0
Neighbor list builds = 2800
Dangerous builds = 0

fix npt1 all npt temp 3000 3000 0.1 iso 0 0 1
run 80000
Per MPI rank memory allocation (min/avg/max) = 8.549 | 8.549 | 8.549 Mbytes
   Step          Temp          E_pair         E_mol          TotEng         Press          Volume    
    320000   3095.4639     -590.73371      0             -552.7223       48716.804      1509.6526    
    321000   2744.9166     -593.92745      0             -560.22066     -34365.452      1548.9833    
    322000   3146.1374     -587.17107      0             -548.53741     -3866.3972      1567.8677    
    323000   2729.0334     -594.48561      0             -560.97387      7247.2379      1601.5175    
    324000   3215.9725     -591.12931      0             -551.63809     -5718.906       1629.9754    
    325000   2813.4476     -590.93536      0             -556.38703     -43079.474      1644.8528    
    326000   2715.982      -590.12699      0             -556.77551     -18477.278      1637.9617    
    327000   2722.7936     -591.58441      0             -558.14929      11534.557      1555.7014    
    328000   3353.6772     -590.26536      0             -549.08316     -1505.9096      1633.4129    
    329000   2965.6151     -592.22702      0             -555.81012      13867.945      1597.8664    
    330000   3020.4101     -590.20755      0             -553.11778     -26008.052      1613.8361    
    331000   2720.2099     -594.77421      0             -561.37081     -29370.852      1620.1044    
    332000   2886.425      -592.21576      0             -556.77129     -13696.216      1619.7872    
    333000   2830.0745     -598.87271      0             -564.12021     -26242.24       1668.9126    
    334000   2900.3857     -588.82754      0             -553.21163     -37178.049      1635.2891    
    335000   3680.6445     -591.71964      0             -546.52238     -19027.142      1612.1198    
    336000   2942.1816     -592.40837      0             -556.27923     -2801.4004      1601.207     
    337000   3117.8783     -586.41134      0             -548.12469      13000.988      1587.4155    
    338000   2871.6156     -591.79114      0             -556.52852     -35038.007      1630.6424    
    339000   3292.5251     -591.45391      0             -551.02265     -26665.078      1633.875     
    340000   2454.0768     -596.51023      0             -566.37487     -36492.422      1640.7392    
    341000   3194.1358     -592.61436      0             -553.39129     -16024.787      1583.5362    
    342000   3002.8282     -590.72846      0             -553.85459      4551.0805      1599.1652    
    343000   2878.6725     -591.22253      0             -555.87326     -30418.18       1587.3037    
    344000   2670.8063     -592.66672      0             -559.86998     -6943.6202      1584.9654    
    345000   2909.4773     -591.19813      0             -555.47058     -4099.6922      1570.9852    
    346000   3090.6474     -590.30586      0             -552.35359     -12372.81       1535.5162    
    347000   2613.5116     -590.74097      0             -558.6478       47570.278      1514.3153    
    348000   3137.1683     -593.2549       0             -554.73137      13504.648      1541.562     
    349000   2961.5314     -587.30778      0             -550.94102     -23079.897      1565.7955    
    350000   2886.3451     -591.21863      0             -555.77514      8210.6937      1581.5089    
    351000   3238.3725     -585.95834      0             -546.19206     -18666.865      1558.1174    
    352000   3277.3741     -594.6731       0             -554.42788      9705.7949      1539.7892    
    353000   3217.3047     -596.51945      0             -557.01187      11628.423      1521.1779    
    354000   3367.9517     -588.32305      0             -546.96557      11168.703      1499.4963    
    355000   2895.0049     -598.26025      0             -562.71042      6258.2092      1534.4421    
    356000   3120.4454     -589.60574      0             -551.28756     -36352.012      1579.5281    
    357000   2604.1648     -594.47414      0             -562.49574      1364.4744      1599.3203    
    358000   3309.8251     -596.46777      0             -555.82407     -7684.1106      1614.0105    
    359000   3157.5827     -589.21287      0             -550.43866     -22909.991      1593.4159    
    360000   2913.5872     -593.06275      0             -557.28473      2941.0029      1575.0189    
    361000   3114.1117     -588.03491      0             -549.79451     -4562.542       1561.4738    
    362000   2907.8091     -591.35463      0             -555.64757     -14625.598      1564.8572    
    363000   2819.0111     -587.25436      0             -552.63771     -25545.989      1588.3436    
    364000   3356.9913     -590.59524      0             -549.37235      4815.0513      1590.5082    
    365000   2764.6318     -590.27282      0             -556.32394     -9803.236       1589.7191    
    366000   3322.7025     -593.05244      0             -552.2506      -6021.0179      1573.3564    
    367000   3185.1334     -593.01211      0             -553.89958      1576.7323      1605.9513    
    368000   3246.5563     -585.66664      0             -545.79985     -491.72598      1597.2519    
    369000   2947.8772     -594.99145      0             -558.79237     -423.9549       1576.9332    
    370000   2932.2175     -588.98106      0             -552.97427     -16319.02       1599.8542    
    371000   3280.2734     -596.96076      0             -556.67994     -13014.214      1565.9373    
    372000   3147.3948     -598.46144      0             -559.81233     -6654.3254      1573.0353    
    373000   3304.4892     -590.43483      0             -549.85665      56324.297      1583.532     
    374000   2715.507      -589.16662      0             -555.82097     -6585.0266      1571.4228    
    375000   3047.5018     -592.72431      0             -555.30186      13550.72       1434.1274    
    376000   3384.501      -598.01353      0             -556.45283     -2730.4358      1493.3132    
    377000   3063.2599     -590.71416      0             -553.09821      84746.983      1494.0732    
    378000   3015.8663     -594.25092      0             -557.21695     -15304.941      1472.9535    
    379000   2902.1992     -582.22224      0             -546.58406     -24392.942      1572.8372    
    380000   2910.502      -590.76082      0             -555.02068      11410.388      1547.5776    
    381000   3764.2988     -598.5747       0             -552.35019      19197.08       1497.7196    
    382000   3120.9804     -599.70268      0             -561.37793      11155.789      1536.9673    
    383000   3032.3638     -590.62776      0             -553.3912      -9613.2438      1551.6616    
    384000   3389.4333     -591.68466      0             -550.06339     -2833.9672      1505.518     
    385000   2921.3718     -589.59804      0             -553.72443      12112.055      1464.532     
    386000   3210.2224     -594.7756       0             -555.35499     -31484.311      1483.5988    
    387000   3083.1734     -587.90499      0             -550.0445      -18270.596      1497.9109    
    388000   2618.4902     -593.48215      0             -561.32784      22384.928      1463.7347    
    389000   3102.9492     -595.4356       0             -557.33227     -31245.555      1477.1215    
    390000   2786.8468     -598.47518      0             -564.2535      -20084.395      1484.638     
    391000   3009.074      -590.2239       0             -553.27333      17090.024      1410.9078    
    392000   2547.7982     -591.50948      0             -560.22324      12291.213      1441.3283    
    393000   2894.6157     -590.54402      0             -554.99897      16043.062      1461.0864    
    394000   2624.8101     -592.93544      0             -560.70352      4075.3765      1455.6472    
    395000   2773.1483     -589.4965       0             -555.44303     -23087.462      1485.4411    
    396000   3390.7148     -592.12248      0             -550.48548      19809.443      1498.15      
    397000   2812.6986     -594.2575       0             -559.71836     -8131.5408      1479.9194    
    398000   3454.5752     -589.24938      0             -546.82818      10398.526      1485.4911    
    399000   2659.7546     -587.94686      0             -555.28583     -16985.504      1492.5634    
    400000   2704.7922     -588.47983      0             -555.26575      16414.74       1457.4431    
Loop time of 5.96227 on 1 procs for 80000 steps with 96 atoms

Performance: 1159.290 ns/day, 0.021 hours/ns, 13417.711 timesteps/s, 1.288 Matom-step/s
99.1% CPU use with 1 MPI tasks x no OpenMP threads

MPI task timing breakdown:
Section |  min time  |  avg time  |  max time  |%varavg| %total
---------------------------------------------------------------
Pair    | 4.987      | 4.987      | 4.987      |   0.0 | 83.64
Bond    | 0.0025574  | 0.0025574  | 0.0025574  |   0.0 |  0.04
Neigh   | 0.30657    | 0.30657    | 0.30657    |   0.0 |  5.14
Comm    | 0.19036    | 0.19036    | 0.19036    |   0.0 |  3.19
Output  | 0.0097489  | 0.0097489  | 0.0097489  |   0.0 |  0.16
Modify  | 0.43502    | 0.43502    | 0.43502    |   0.0 |  7.30
Other   |            | 0.03099    |            |       |  0.52

Nlocal:             96 ave          96 max          96 min
Histogram: 1 0 0 0 0 0 0 0 0 0
Nghost:            510 ave         510 max         510 min
Histogram: 1 0 0 0 0 0 0 0 0 0
Neighs:              0 ave           0 max           0 min
Histogram: 1 0 0 0 0 0 0 0 0 0
FullNghs:         2896 ave        2896 max        2896 min
Histogram: 1 0 0 0 0 0 0 0 0 0

Total # of neighbors = 2896
Ave neighs/atom = 30.166667
Ave special neighs/atom = 0
Neighbor list builds = 2540
Dangerous builds = 0

fix npt1 all npt temp 3000 2000 0.1 iso 0 0 1
run 80000
Per MPI rank memory allocation (min/avg/max) = 8.549 | 8.549 | 8.549 Mbytes
   Step          Temp          E_pair         E_mol          TotEng         Press          Volume    
    400000   2704.7922     -588.47983      0             -555.26575      16414.74       1457.4431    
    401000   2972.1047     -594.37837      0             -557.88177      40662.762      1470.7459    
    402000   2995.5237     -596.8079       0             -560.02373      55206.202      1408.2162    
    403000   2882.1242     -590.75284      0             -555.36118      471.82061      1489.5735    
    404000   2896.0757     -592.48759      0             -556.92461     -28098.691      1512.6428    
    405000   3280.9998     -594.77394      0             -554.4842       2495.3868      1511.8152    
    406000   2601.7216     -590.55496      0             -558.60656      10666.732      1466.9874    
    407000   3135.4809     -599.24618      0             -560.74337      48156.414      1433.0449    
    408000   2637.4226     -591.7925       0             -559.4057      -5053.2652      1496.9128    
    409000   2521.0413     -590.64551      0             -559.68784     -28879.979      1546.2475    
    410000   2860.9247     -591.44288      0             -556.31154     -11169.996      1562.744     
    411000   2620.7293     -597.56896      0             -565.38716      214.21973      1505.6314    
    412000   2729.8213     -590.74566      0             -557.22423      28899.701      1453.018     
    413000   2505.5064     -594.18199      0             -563.41509     -13690.338      1440.8165    
    414000   3366.9921     -596.54577      0             -555.20007      3446.7581      1449.9249    
    415000   2694.4306     -598.39268      0             -565.30584     -6089.8233      1522.3701    
    416000   2747.2173     -591.41562      0             -557.68058      13031.051      1528.2819    
    417000   2704.5954     -596.39494      0             -563.18329     -17039.701      1511.6892    
    418000   3108.6003     -591.97872      0             -553.806       -24736.558      1512.1716    
    419000   2725.4352     -597.48917      0             -564.0216      -3446.5766      1484.0144    
    420000   3195.8691     -596.64113      0             -557.39677      30706.447      1472.9222    
    421000   2487.3518     -595.00781      0             -564.46384     -20572.74       1547.6799    
    422000   2718.1217     -598.39143      0             -565.01367      23335.601      1517.0083    
    423000   2575.1499     -594.2334       0             -562.6113      -25125.192      1522.7175    
    424000   2675.7083     -597.18622      0             -564.32928     -12156.648      1531.4517    
    425000   2652.2351     -599.86043      0             -567.29174      4830.3615      1530.0849    
    426000   2481.0196     -601.84827      0             -571.38206      4574.1345      1453.7555    
    427000   2792.9679     -596.97734      0             -562.68049     -1099.3117      1490.0862    
    428000   2364.6418     -593.21258      0             -564.17545      17233.609      1494.5945    
    429000   2490.8744     -597.55764      0             -566.97042     -16646.424      1512.4966    
    430000   2639.6131     -595.03329      0             -562.6196       2145.7444      1534.2536    
    431000   2692.7938     -598.83067      0             -565.76393     -32810.984      1536.4442    
    432000   2486.2563     -601.99366      0             -571.46315     -31863.459      1567.605     
    433000   2371.5611     -595.78904      0             -566.66694     -13584.818      1535.1926    
    434000   2594.1702     -598.30802      0             -566.45235     -4281.9378      1509.0868    
    435000   2659.5486     -603.79655      0             -571.13805      34233.821      1509.1786    
    436000   2821.1052     -599.84515      0             -565.20279     -9201.456       1491.0346    
    437000   2497.226      -602.46219      0             -571.79697      3572.3618      1471.2938    
    438000   2639.4095     -597.59434      0             -565.18315      18710.586      1455.5527    
    439000   1955.306      -596.36598      0             -572.35538     -12240.573      1501.1599    
    440000   2408.2962     -598.95081      0             -569.37762     -20371.472      1559.9434    
    441000   2770.5747     -598.40243      0             -564.38057     -8314.0089      1571.6987    
    442000   2751.2508     -601.0406       0             -567.25603     -8439.4705      1523.8389    
    443000   2442.4146     -599.67597      0             -569.68382     -2776.6847      1458.616     
    444000   2504.5654     -602.34678      0             -571.59143      15666.731      1461.7185    
    445000   2295.5663     -601.79707      0             -573.60817      48152.041      1514.0001    
    446000   2534.305      -601.46659      0             -570.34605      4901.5923      1529.9051    
    447000   2230.7694     -601.11008      0             -573.71687      17583.379      1519.0033    
    448000   2426.6365     -593.84595      0             -564.04754      11336.514      1472.7165    
    449000   2404.9888     -604.34612      0             -574.81355      39102.746      1457.9942    
    450000   2233.8972     -598.48895      0             -571.05734     -6594.1256      1503.4686    
    451000   2222.7869     -600.46094      0             -573.16576     -4875.3785      1534.0824    
    452000   2099.4408     -600.18531      0             -574.40478     -7238.2284      1535.7262    
    453000   2254.1662     -596.21821      0             -568.5377      -18603.933      1552.9561    
    454000   2041.9422     -601.33774      0             -576.26328      1540.299       1543.5818    
    455000   2396.1334     -600.32942      0             -570.90559      11443.578      1502.5273    
    456000   2547.87       -596.28119      0             -564.99408     -6170.9525      1536.4435    
    457000   1822.4953     -600.36421      0             -577.98449      2547.2614      1526.1063    
    458000   2405.8187     -601.3144       0             -571.77164     -3781.0483      1522.0896    
    459000   2235.6653     -604.01919      0             -576.56586      7079.551       1540.9777    
    460000   2394.0349     -604.37637      0             -574.97831     -763.33179      1550.5692    
    461000   2250.5882     -597.96244      0             -570.32586     -19416.491      1567.4442    
    462000   2065.5645     -601.63602      0             -576.27148      8731.3836      1563.1797    
    463000   2397.2347     -599.70062      0             -570.26326      7883.5982      1541.8184    
    464000   2378.8264     -602.393        0             -573.18169      3289.1111      1548.4189    
    465000   2024.847      -600.89963      0             -576.03509     -17778.186      1525.7795    
    466000   1877.9157     -605.27479      0             -582.21452     -14782.336      1528.1153    
    467000   1944.9061     -601.24543      0             -577.36254     -3179.9994      1518.5385    
    468000   2006.673      -603.94236      0             -579.30099     -4943.9028      1528.6336    
    469000   2346.195      -599.81529      0             -571.00469      5870.8733      1497.7275    
    470000   2459.5778     -606.79886      0             -576.59594     -2605.1114      1502.6977    
    471000   2053.6712     -606.62919      0             -581.41069     -6534.9061      1519.1498    
    472000   2025.1841     -603.16978      0             -578.3011      -12560.598      1579.4795    
    473000   2117.3701     -597.39906      0             -571.39837     -51249.319      1586.6866    
    474000   1945.9832     -604.40435      0             -580.50823     -14981.11       1558.3795    
    475000   2216.4933     -605.6045       0             -578.38659     -11591.687      1569.1592    
    476000   1843.6178     -603.71664      0             -581.07754     -31187.069      1562.1888    
    477000   1952.9416     -606.78269      0             -582.80112     -14405.429      1517.4203    
    478000   1926.1098     -606.47085      0             -582.81877      30879.039      1491.3463    
    479000   2041.0348     -607.15209      0             -582.08877      10465.371      1520.5146    
    480000   1894.6214     -605.6131       0             -582.34769      40474.844      1498.4335    
Loop time of 5.97663 on 1 procs for 80000 steps with 96 atoms

Performance: 1156.504 ns/day, 0.021 hours/ns, 13385.464 timesteps/s, 1.285 Matom-step/s
99.3% CPU use with 1 MPI tasks x no OpenMP threads

MPI task timing breakdown:
Section |  min time  |  avg time  |  max time  |%varavg| %total
---------------------------------------------------------------
Pair    | 5.0375     | 5.0375     | 5.0375     |   0.0 | 84.29
Bond    | 0.0024669  | 0.0024669  | 0.0024669  |   0.0 |  0.04
Neigh   | 0.26839    | 0.26839    | 0.26839    |   0.0 |  4.49
Comm    | 0.19224    | 0.19224    | 0.19224    |   0.0 |  3.22
Output  | 0.010818   | 0.010818   | 0.010818   |   0.0 |  0.18
Modify  | 0.43398    | 0.43398    | 0.43398    |   0.0 |  7.26
Other   |            | 0.03123    |            |       |  0.52

Nlocal:             96 ave          96 max          96 min
Histogram: 1 0 0 0 0 0 0 0 0 0
Nghost:            502 ave         502 max         502 min
Histogram: 1 0 0 0 0 0 0 0 0 0
Neighs:              0 ave           0 max           0 min
Histogram: 1 0 0 0 0 0 0 0 0 0
FullNghs:         2788 ave        2788 max        2788 min
Histogram: 1 0 0 0 0 0 0 0 0 0

Total # of neighbors = 2788
Ave neighs/atom = 29.041667
Ave special neighs/atom = 0
Neighbor list builds = 2198
Dangerous builds = 0

fix npt1 all npt temp 2000 2000 0.1 iso 0 0 1
run 80000
Per MPI rank memory allocation (min/avg/max) = 8.549 | 8.549 | 8.549 Mbytes
   Step          Temp          E_pair         E_mol          TotEng         Press          Volume    
    480000   1894.6214     -605.6131       0             -582.34769      40474.844      1498.4335    
    481000   1963.5181     -604.42495      0             -580.31351      21270.55       1539.8946    
    482000   2379.0868     -607.84351      0             -578.629        9849.4432      1524.7842    
    483000   1932.4586     -609.00021      0             -585.27017      11341.987      1506.404     
    484000   2007.977      -604.61642      0             -579.95904     -709.71345      1510.6643    
    485000   1936.2882     -608.39851      0             -584.62145     -17984.151      1506.1911    
    486000   2121.6537     -604.04802      0             -577.99472      11934.402      1498.8982    
    487000   2023.4907     -608.06537      0             -583.21749     -3531.9261      1544.2037    
    488000   2249.1496     -604.50407      0             -576.88516     -2964.4037      1554.9477    
    489000   2105.8008     -605.24802      0             -579.38939      14410.996      1486.3374    
    490000   1926.737      -606.49636      0             -582.83659      30398.568      1510.6277    
    491000   2070.212      -603.35625      0             -577.93464     -26176.812      1545.8733    
    492000   1919.3188     -602.16142      0             -578.59274     -9534.5935      1524.8159    
    493000   2166.9039     -608.72776      0             -582.1188      -4061.0692      1475.4893    
    494000   2064.4316     -602.56516      0             -577.21453     -6428.6573      1475.5461    
    495000   1772.3157     -605.17067      0             -583.40714      28.088444      1472.4536    
    496000   1893.3006     -607.45735      0             -584.20816      17771.569      1453.3042    
    497000   2065.1817     -608.32009      0             -582.96025     -24502.287      1453.9323    
    498000   1990.5686     -606.18967      0             -581.74605      4128.4191      1474.5779    
    499000   1871.5165     -611.58231      0             -588.60062     -12552.218      1490.9802    
    500000   2347.6098     -608.27536      0             -579.44738      10066.712      1436.9537    
    501000   1902.8759     -607.20897      0             -583.8422       12934.176      1459.7438    
    502000   1869.0442     -608.71637      0             -585.76504     -9093.5292      1471.5972    
    503000   2128.1424     -610.71261      0             -584.57963     -3142.5049      1437.3638    
    504000   1837.156      -607.39702      0             -584.83727      5800.8142      1465.0042    
    505000   1878.3607     -601.34404      0             -578.27831     -28088.768      1499.7927    
    506000   1947.455      -611.745        0             -587.83081     -8322.9078      1460.0951    
    507000   2109.8673     -607.05121      0             -581.14264     -6659.786       1445.0287    
    508000   2187.8619     -609.43793      0             -582.57161     -3315.4546      1458.5371    
    509000   1692.5439     -609.38611      0             -588.60215     -1681.1872      1450.7566    
    510000   2086.513      -606.93378      0             -581.312        9500.3774      1453.7594    
    511000   2265.037      -606.67595      0             -578.86194     -27569.097      1475.5686    
    512000   1795.5957     -607.63512      0             -585.58572     -12372.754      1482.6993    
    513000   2021.4803     -610.03684      0             -585.21364     -12961.921      1467.7977    
    514000   2137.7184     -606.25737      0             -580.0068       13518.538      1448.9015    
    515000   1834.5009     -608.10987      0             -585.58272     -15912.681      1517.6023    
    516000   1851.2069     -603.78513      0             -581.05284      19894.339      1443.3683    
    517000   1847.3492     -605.36667      0             -582.68175     -3636.2494      1476.9076    
    518000   2159.4384     -605.99819      0             -579.4809      -2578.9017      1492.0485    
    519000   1956.0963     -606.30709      0             -582.28679      792.74083      1451.2353    
    520000   1825.8019     -606.60144      0             -584.18111      20508.717      1454.6107    
    521000   1775.2274     -603.44221      0             -581.64293     -29704.375      1483.7717    
    522000   1965.9248     -605.92048      0             -581.77949      14011.715      1482.8174    
    523000   1953.9992     -605.64736      0             -581.65281     -13649.762      1442.9317    
    524000   1792.6775     -606.84672      0             -584.83315      19099.671      1399.0609    
    525000   1925.6413     -608.14163      0             -584.49531      930.25995      1494.7676    
    526000   2085.4602     -604.85972      0             -579.25086     -24817.723      1499.9341    
    527000   1966.6352     -606.36921      0             -582.21949      27541.078      1414.288     
    528000   1802.8115     -606.04945      0             -583.91144     -30025.435      1493.0687    
    529000   1990.7749     -605.77297      0             -581.32683     -374.76138      1478.9942    
    530000   1841.4871     -608.79727      0             -586.18433     -11128.871      1449.3775    
    531000   1833.071      -605.6009       0             -583.09131     -7667.7648      1477.9089    
    532000   1826.0644     -607.6282       0             -585.20465     -26473.351      1510.1097    
    533000   2014.8017     -606.78321      0             -582.04203     -3096.2801      1427.5213    
    534000   2086.417      -608.41518      0             -582.79458     -4262.2269      1482.5351    
    535000   2401.0764     -609.27409      0             -579.78956      7493.8602      1489.1522    
    536000   2205.677      -603.94285      0             -576.85777      613.36363      1420.5349    
    537000   2124.4445     -607.53401      0             -581.44644      16399.267      1406.8781    
    538000   1632.0245     -607.13718      0             -587.09638     -15851.84       1494.7773    
    539000   2067.7733     -605.02961      0             -579.63794     -5019.7324      1453.6248    
    540000   1996.1689     -607.59472      0             -583.08234     -16374.648      1481.5817    
    541000   2019.0275     -605.97915      0             -581.18607      6071.8338      1450.2768    
    542000   1726.4707     -605.59887      0             -584.39831     -30125.784      1492.4627    
    543000   2231.7675     -607.06172      0             -579.65626      16686.087      1442.4372    
    544000   2118.1016     -611.78296      0             -585.77328     -9598.6328      1465.2343    
    545000   2027.8846     -607.73464      0             -582.8328      -465.03389      1456.4314    
    546000   1869.1674     -607.20163      0             -584.24879      9814.3745      1425.1492    
    547000   1764.8356     -609.08031      0             -587.40864     -16529.272      1499.4321    
    548000   2138.5699     -607.29213      0             -581.0311       3142.6922      1477.9512    
    549000   1948.9067     -611.08767      0             -587.15566      9118.0937      1436.4036    
    550000   2052.8253     -608.23398      0             -583.02587     -20489.07       1454.0083    
    551000   2040.381      -608.36346      0             -583.30816     -36896.82       1441.6144    
    552000   1891.2496     -608.6227       0             -585.39869     -19969.157      1460.9237    
    553000   1987.4235     -605.47128      0             -581.06629      1567.38        1438.3246    
    554000   1839.9455     -608.25156      0             -585.65756     -1927.7804      1444.9434    
    555000   2106.3974     -606.82742      0             -580.96146     -20517.72       1445.6781    
    556000   1994.514      -607.19115      0             -582.69909     -21034.561      1436.039     
    557000   2063.0059     -609.97255      0             -584.63943      7921.0851      1404.7575    
    558000   2276.4211     -607.51473      0             -579.56093     -5337.5093      1423.9212    
    559000   2481.9888     -606.72063      0             -576.24252     -2896.3139      1453.5017    
    560000   2094.8461     -610.24516      0             -584.52105      15584.386      1407.4499    
Loop time of 5.92526 on 1 procs for 80000 steps with 96 atoms

Performance: 1166.531 ns/day, 0.021 hours/ns, 13501.518 timesteps/s, 1.296 Matom-step/s
99.4% CPU use with 1 MPI tasks x no OpenMP threads

MPI task timing breakdown:
Section |  min time  |  avg time  |  max time  |%varavg| %total
---------------------------------------------------------------
Pair    | 5.0354     | 5.0354     | 5.0354     |   0.0 | 84.98
Bond    | 0.002435   | 0.002435   | 0.002435   |   0.0 |  0.04
Neigh   | 0.22653    | 0.22653    | 0.22653    |   0.0 |  3.82
Comm    | 0.19144    | 0.19144    | 0.19144    |   0.0 |  3.23
Output  | 0.0096131  | 0.0096131  | 0.0096131  |   0.0 |  0.16
Modify  | 0.42977    | 0.42977    | 0.42977    |   0.0 |  7.25
Other   |            | 0.03006    |            |       |  0.51

Nlocal:             96 ave          96 max          96 min
Histogram: 1 0 0 0 0 0 0 0 0 0
Nghost:            518 ave         518 max         518 min
Histogram: 1 0 0 0 0 0 0 0 0 0
Neighs:              0 ave           0 max           0 min
Histogram: 1 0 0 0 0 0 0 0 0 0
FullNghs:         2978 ave        2978 max        2978 min
Histogram: 1 0 0 0 0 0 0 0 0 0

Total # of neighbors = 2978
Ave neighs/atom = 31.020833
Ave special neighs/atom = 0
Neighbor list builds = 1835
Dangerous builds = 0

fix npt1 all npt temp 2000 1000 0.1 iso 0 0 1
run 80000
Per MPI rank memory allocation (min/avg/max) = 8.549 | 8.549 | 8.549 Mbytes
   Step          Temp          E_pair         E_mol          TotEng         Press          Volume    
    560000   2094.8461     -610.24516      0             -584.52105      15584.386      1407.4499    
    561000   1953.6263     -604.49941      0             -580.50944     -12196.212      1462.5636    
    562000   2062.1632     -612.3694       0             -587.04662      15053.357      1417.9548    
    563000   1898.1689     -606.34227      0             -583.0333       9436.8586      1412.904     
    564000   1805.1311     -610.8373       0             -588.67081     -16755.671      1447.2722    
    565000   2142.8804     -611.2888       0             -584.97484     -5429.3101      1435.3873    
    566000   2154.032      -606.82445      0             -580.37356      1639.2848      1472.8082    
    567000   1954.4123     -608.24028      0             -584.24066     -12096.692      1433.0068    
    568000   1751.2033     -611.84923      0             -590.34496      35674.907      1377.797     
    569000   1834.5504     -607.59514      0             -585.06738     -13480.707      1474.0115    
    570000   1730.1957     -610.11605      0             -588.86975     -12023.805      1425.3243    
    571000   2046.6912     -606.76607      0             -581.63329     -18211.428      1425.1101    
    572000   1799.1461     -609.94618      0             -587.85318      17580.315      1413.8547    
    573000   1944.9138     -605.63786      0             -581.75488     -3721.9527      1427.0885    
    574000   1987.7571     -608.81868      0             -584.40959     -2151.4862      1420.4662    
    575000   1860.8819     -610.03893      0             -587.18783      23701.857      1410.8842    
    576000   1483.3867     -608.69143      0             -590.47586      2202.1678      1457.0683    
    577000   1929.8381     -610.08418      0             -586.38632     -16021.542      1432.6723    
    578000   2023.8254     -614.11251      0             -589.26051      1675.963       1444.9559    
    579000   1832.948      -609.56284      0             -587.05477     -9836.0149      1453.1031    
    580000   1811.8689     -611.95026      0             -589.70103      6006.9443      1377.8385    
    581000   1723.2277     -613.36772      0             -592.20698     -862.23814      1456.7973    
    582000   1984.35       -611.00955      0             -586.6423      -6659.2539      1445.9161    
    583000   1741.6788     -612.60978      0             -591.22246      35618.828      1381.8326    
    584000   1768.2048     -610.35705      0             -588.644        29559.214      1407.4038    
    585000   1605.6067     -613.70011      0             -593.98372      1736.2248      1436.1201    
    586000   1688.1426     -611.83639      0             -591.10648      18055.476      1415.9704    
    587000   1743.7982     -610.30673      0             -588.89339     -11616.203      1454.3037    
    588000   1719.7834     -613.27019      0             -592.15174      7700.8632      1440.7108    
    589000   1710.0589     -612.90475      0             -591.90572      6470.8287      1384.6954    
    590000   1706.5511     -614.28915      0             -593.33319     -6357.031       1436.8024    
    591000   1645.2499     -615.78262      0             -595.57942     -5034.3324      1430.7332    
    592000   1588.8667     -611.05579      0             -591.54496      3798.1072      1414.7029    
    593000   1791.3995     -614.25919      0             -592.26132      2620.5793      1434.3214    
    594000   1615.8035     -614.24311      0             -594.40151      5354.5308      1405.7615    
    595000   1905.287      -614.49663      0             -591.10025      13320.879      1397.7708    
    596000   1432.9544     -614.51022      0             -596.91395     -13934.92       1455.4733    
    597000   1442.2225     -613.49702      0             -595.78694      8419.5138      1398.2398    
    598000   1420.1468     -613.19433      0             -595.75533      19989.101      1385.3549    
    599000   1617.0262     -614.54284      0             -594.68622     -14856.301      1447.2091    
    600000   1288.5282     -616.17435      0             -600.35159     -7796.4832      1420.2743    
    601000   1468.0974     -615.64443      0             -597.61661     -8673.125       1412.5599    
    602000   1407.101      -617.32093      0             -600.04213     -19338.642      1432.3095    
    603000   1477.4924     -614.76212      0             -596.61894     -9706.7612      1428.847     
    604000   1371.9421     -615.29607      0             -598.44902     -13048.262      1428.1576    
    605000   1387.4574     -614.59672      0             -597.55914      5150.0559      1422.7407    
    606000   1366.6483     -615.67562      0             -598.89357     -10642.76       1449.5808    
    607000   1533.6018     -613.39717      0             -594.56498      302.36305      1397.0479    
    608000   1258.7702     -620.1462       0             -604.68886     -4488.8711      1429.3883    
    609000   1454.4006     -615.45916      0             -597.59954      11963.049      1413.0598    
    610000   1543.2708     -617.57938      0             -598.62846     -18357.453      1406.4495    
    611000   1426.7057     -615.15013      0             -597.63059     -17057.815      1434.2648    
    612000   1375.6539     -616.60426      0             -599.71163      11251.612      1395.4489    
    613000   1400.5682     -612.2799       0             -595.08133     -18926.888      1435.6051    
    614000   1323.9767     -616.51596      0             -600.25791      24519.81       1421.8154    
    615000   1290.3679     -618.59661      0             -602.75126     -8621.5934      1421.0797    
    616000   1234.3774     -616.73578      0             -601.57798      39029.284      1373.7497    
    617000   1286.2869     -617.11433      0             -601.31909      10477.766      1433.3031    
    618000   1384.9812     -617.70616      0             -600.69899      1228.7443      1435.1175    
    619000   1224.7055     -617.06196      0             -602.02292     -8211.4231      1405.1554    
    620000   1227.5987     -619.9207       0             -604.84614      12239.122      1417.9319    
    621000   1271.0646     -616.54505      0             -600.93674     -3230.7398      1417.5246    
    622000   1128.8175     -620.12253      0             -606.26097     -89.811203      1417.443     
    623000   1374.4326     -618.25595      0             -601.37831      6587.7106      1404.9379    
    624000   1256.7602     -618.68729      0             -603.25463     -7982.5406      1436.3709    
    625000   1120.8491     -617.79173      0             -604.02802      14387.151      1407.5061    
    626000   1110.2511     -619.01428      0             -605.38071     -9350.8752      1417.1373    
    627000   1103.6104     -619.04539      0             -605.49337      1157.6603      1403.2153    
    628000   1117.0825     -619.15319      0             -605.43574     -6068.0461      1415.8174    
    629000   1186.6407     -617.48496      0             -602.91335     -20389.395      1444.1475    
    630000   1074.7629     -616.91148      0             -603.7137       18184.02       1400.3333    
[...]
Neighs:              0 ave           0 max           0 min
Histogram: 1 0 0 0 0 0 0 0 0 0
FullNghs:         3050 ave        3050 max        3050 min
Histogram: 1 0 0 0 0 0 0 0 0 0

Total # of neighbors = 3050
Ave neighs/atom = 31.770833
Ave special neighs/atom = 0
Neighbor list builds = 54
Dangerous builds = 0


fix npt1 all npt temp 500 10 0.1 iso 0 0 1
run 80000
Per MPI rank memory allocation (min/avg/max) = 8.549 | 8.549 | 8.549 Mbytes
   Step          Temp          E_pair         E_mol          TotEng         Press          Volume    
    880000   535.74309     -628.22126      0             -621.64249     -4210.4793      1390.8684    
    881000   495.49116     -628.17721      0             -622.09272     -1047.676       1392.5436    
    882000   524.21907     -627.8733       0             -621.43604     -299.73628      1387.4431    
    883000   501.3413      -627.25975      0             -621.10342     -4666.9603      1385.9574    
    884000   502.7566      -628.30769      0             -622.13399     -6661.371       1389.3715    
    885000   519.58478     -628.58077      0             -622.20042      15303.818      1388.9685    
    886000   433.58013     -628.56104      0             -623.2368      -11270.403      1404.3846    
    887000   403.30481     -628.03195      0             -623.07948     -1244.5633      1390.4865    
    888000   492.14871     -629.28307      0             -623.23963      6254.0582      1387.928     
    889000   442.8979      -628.64994      0             -623.21128     -2942.1882      1386.741     
    890000   480.89393     -627.47323      0             -621.56799     -5880.6461      1391.9469    
    891000   381.27019     -628.66219      0             -623.9803       12015.676      1371.3866    
    892000   356.96585     -628.44484      0             -624.06141     -4033.7774      1378.1623    
    893000   468.09716     -629.39524      0             -623.64714      15845.824      1379.7639    
    894000   480.43095     -628.307        0             -622.40744      9214.9972      1376.6681    
    895000   416.25696     -629.52088      0             -624.40936     -4559.0586      1390.06      
    896000   436.07113     -628.37211      0             -623.01728     -4222.2388      1400.221     
    897000   434.78155     -629.4459       0             -624.1069      -9129.0414      1409.3833    
    898000   396.62183     -629.79802      0             -624.92761      23056.172      1394.1406    
    899000   444.3247      -629.26911      0             -623.81293     -10322.211      1389.2171    
    900000   380.46471     -629.52412      0             -624.85212      7839.8783      1381.9222    
    901000   386.27325     -629.20116      0             -624.45783      2921.2137      1383.0619    
    902000   331.26363     -630.03304      0             -625.96522     -11097.557      1417.8408    
    903000   340.62543     -629.2476       0             -625.06482      6602.1555      1386.3788    
    904000   316.27276     -629.59722      0             -625.71348     -6596.5691      1400.9298    
    905000   334.04261     -629.66171      0             -625.55976      3282.9649      1381.6297    
    906000   366.20411     -629.78696      0             -625.29008     -4647.3754      1398.8536    
    907000   325.80674     -629.88933      0             -625.88852      16283.579      1372.5824    
    908000   360.72351     -629.72484      0             -625.29526      8184.6538      1391.6058    
    909000   286.96772     -629.90868      0             -626.3848      -13080.006      1406.5135    
    910000   324.34182     -630.68183      0             -626.699        14731.848      1380.5134    
    911000   312.22641     -630.22141      0             -626.38736     -2246.9676      1388.7123    
    912000   316.59146     -630.62106      0             -626.73341      8517.5654      1362.8031    
    913000   276.17038     -630.08414      0             -626.69285      7112.2042      1384.6603    
    914000   258.7903      -630.61002      0             -627.43215      3319.1612      1380.5384    
    915000   269.08868     -630.25341      0             -626.94908      217.26619      1391.5621    
    916000   305.97249     -630.66568      0             -626.90842      898.3455       1396.8803    
    917000   274.79936     -630.87939      0             -627.50493      3084.9926      1390.2895    
    918000   309.10978     -630.73291      0             -626.93713      2317.4468      1383.382     
    919000   260.00954     -631.12033      0             -627.92749     -1357.5431      1389.6219    
    920000   258.551       -630.84539      0             -627.67046      4154.2161      1372.9822    
    921000   249.06789     -631.08868      0             -628.0302       6853.8085      1369.904     
    922000   216.79285     -630.98791      0             -628.32576      2880.265       1394.0716    
    923000   260.8795      -631.08668      0             -627.88316     -8463.6991      1397.694     
    924000   237.90688     -631.53659      0             -628.61517     -3641.708       1399.5113    
    925000   227.17334     -631.67522      0             -628.88559      1209.1279      1372.322     
    926000   204.6013      -631.5391       0             -629.02666      522.79321      1384.6877    
    927000   216.92202     -631.65728      0             -628.99354      112.52979      1376.3604    
    928000   217.54336     -631.29292      0             -628.62155     -695.36971      1385.3658    
    929000   194.6534      -631.52929      0             -629.139        3521.6541      1377.3848    
    930000   180.19112     -632.21708      0             -630.00439      3273.8255      1380.5037    
    931000   179.28554     -631.64324      0             -629.44167      7320.9053      1366.2082    
    932000   172.72574     -631.98002      0             -629.85899      2765.7278      1386.7381    
    933000   172.83748     -632.17447      0             -630.05208     -7330.0028      1386.2436    
    934000   161.09014     -631.79608      0             -629.81794     -1295.6892      1390.1893    
    935000   161.78595     -632.19392      0             -630.20723      1071.2894      1382.9821    
    936000   157.04468     -632.00527      0             -630.07681     -2128.072       1387.1731    
    937000   141.6746      -632.39913      0             -630.6594      -6247.1496      1382.0437    
    938000   145.06971     -632.03515      0             -630.25374      2981.3381      1378.511     
    939000   134.3416      -632.43979      0             -630.79011     -1672.6938      1387.6447    
    940000   142.74316     -632.44315      0             -630.69031      5937.922       1367.0605    
    941000   118.17657     -632.44171      0             -630.99054      3009.4597      1385.4411    
    942000   121.85539     -632.54561      0             -631.04926      5397.4134      1379.178     
    943000   135.42152     -632.84267      0             -631.17973     -5349.3076      1381.3951    
    944000   103.15431     -632.97263      0             -631.70593     -3835.3903      1384.2691    
    945000   106.42738     -632.77948      0             -631.47258      4071.3175      1379.0464    
    946000   87.865662     -633.07805      0             -631.99909     -3068.2184      1384.4555    
    947000   89.045386     -632.95837      0             -631.86492     -1501.8142      1380.9683    
    948000   89.737707     -633.18105      0             -632.0791      -3246.5744      1380.7667    
    949000   81.951429     -633.15804      0             -632.1517       2106.4078      1380.1224    
    950000   64.382325     -633.2323       0             -632.4417      -4636.1054      1384.582     
    951000   62.23955      -633.26594      0             -632.50165     -2235.7591      1378.5523    
    952000   55.532175     -633.51672      0             -632.8348      -6362.6735      1382.97      
    953000   48.153389     -633.44164      0             -632.85033     -5922.5478      1382.285     
    954000   48.569157     -633.69269      0             -633.09627     -5286.1899      1381.6151    
    955000   40.585654     -633.79628      0             -633.2979       1210.0048      1379.5762    
    956000   32.634876     -633.83632      0             -633.43557     -478.49592      1375.2005    
    957000   29.300136     -633.85689      0             -633.49709     -2550.4106      1378.1498    
    958000   24.937483     -634.0009       0             -633.69467      1728.1008      1376.5741    
    959000   16.33527      -634.061        0             -633.86041     -47.89591       1378.8166    
    960000   9.7806799     -634.1033       0             -633.9832       1545.8246      1376.9359    
Loop time of 5.44701 on 1 procs for 80000 steps with 96 atoms

Performance: 1268.952 ns/day, 0.019 hours/ns, 14686.946 timesteps/s, 1.410 Matom-step/s
99.4% CPU use with 1 MPI tasks x no OpenMP threads

MPI task timing breakdown:
Section |  min time  |  avg time  |  max time  |%varavg| %total
---------------------------------------------------------------
Pair    | 4.8085     | 4.8085     | 4.8085     |   0.0 | 88.28
Bond    | 0.0025076  | 0.0025076  | 0.0025076  |   0.0 |  0.05
Neigh   | 0.0019151  | 0.0019151  | 0.0019151  |   0.0 |  0.04
Comm    | 0.17828    | 0.17828    | 0.17828    |   0.0 |  3.27
Output  | 0.0085895  | 0.0085895  | 0.0085895  |   0.0 |  0.16
Modify  | 0.42227    | 0.42227    | 0.42227    |   0.0 |  7.75
Other   |            | 0.02494    |            |       |  0.46

Nlocal:             96 ave          96 max          96 min
Histogram: 1 0 0 0 0 0 0 0 0 0
Nghost:            528 ave         528 max         528 min
Histogram: 1 0 0 0 0 0 0 0 0 0
Neighs:              0 ave           0 max           0 min
Histogram: 1 0 0 0 0 0 0 0 0 0
FullNghs:         3038 ave        3038 max        3038 min
Histogram: 1 0 0 0 0 0 0 0 0 0

Total # of neighbors = 3038
Ave neighs/atom = 31.645833
Ave special neighs/atom = 0
Neighbor list builds = 14
Dangerous builds = 0

fix npt1 all npt temp 10 10 0.1 iso 0 0 1
run 80000
Per MPI rank memory allocation (min/avg/max) = 8.549 | 8.549 | 8.549 Mbytes
   Step          Temp          E_pair         E_mol          TotEng         Press          Volume    
    960000   9.7806799     -634.1033       0             -633.9832       1545.8246      1376.9359    
    961000   11.20144      -634.08793      0             -633.95038      238.21496      1376.5525    
    962000   10.774388     -634.09562      0             -633.96332     -1000.6896      1378.1849    
    963000   9.1575813     -634.10667      0             -633.99422      2396.5768      1375.6853    
    964000   10.640358     -634.10783      0             -633.97717      91.117567      1377.1823    
    965000   9.369824      -634.11005      0             -633.99499      206.64281      1374.7852    
    966000   9.6594855     -634.10297      0             -633.98436      990.02098      1374.4428    
    967000   10.759019     -634.08702      0             -633.9549      -462.06309      1380.4515    
    968000   10.443662     -634.11241      0             -633.98417      730.28932      1376.5585    
    969000   10.577436     -634.10731      0             -633.97742      1789.324       1376.1594    
    970000   7.7669254     -634.10663      0             -634.01125     -633.94248      1375.9031    
    971000   10.228384     -634.10617      0             -633.98057      746.28129      1375.4865    
    972000   10.652967     -634.09591      0             -633.9651       1045.9156      1375.7338    
    973000   9.6433947     -634.10814      0             -633.98972      2153.2031      1378.2247    
    974000   9.2990002     -634.10489      0             -633.99071     -1823.5703      1375.3065    
    975000   9.9561587     -634.09857      0             -633.97631     -2383.1127      1379.3916    
    976000   9.6137779     -634.11901      0             -634.00095     -1508.6268      1378.0821    
    977000   10.243956     -634.0902       0             -633.9644      -871.51639      1377.8922    
    978000   9.6344067     -634.10211      0             -633.98381     -484.06365      1380.3532    
    979000   9.5649261     -634.09503      0             -633.97758     -545.8308       1378.1469    
    980000   9.4771734     -634.11226      0             -633.99589     -2045.3103      1377.4634    
    981000   10.764323     -634.11435      0             -633.98217      31.237608      1376.4219    
    982000   8.431275      -634.10936      0             -634.00582      136.18949      1377.7545    
    983000   11.174843     -634.1121       0             -633.97487     -379.62839      1376.5093    
    984000   10.527005     -634.12023      0             -633.99096     -371.22871      1376.9133    
    985000   9.6177231     -634.1113       0             -633.9932      -473.7361       1378.9382    
    986000   11.140426     -634.09636      0             -633.95955      100.82282      1378.1845    
    987000   9.0979313     -634.10315      0             -633.99143     -474.36343      1376.1711    
    988000   10.516186     -634.10058      0             -633.97145      430.44969      1378.1356    
    989000   10.086652     -634.11531      0             -633.99145     -503.10023      1376.3091    
    990000   10.082685     -634.11854      0             -633.99472      908.14131      1374.5827    
    991000   10.177686     -634.10953      0             -633.98455      98.568496      1376.131     
    992000   10.603466     -634.1109       0             -633.98069      398.81294      1375.9866    
    993000   9.018036      -634.08816      0             -633.97742     -192.09439      1378.3833    
    994000   10.321153     -634.10675      0             -633.98001     -1785.7618      1379.6954    
    995000   9.9413823     -634.10719      0             -633.98511     -635.15015      1374.9009    
    996000   10.533681     -634.09887      0             -633.96952     -1614.7967      1378.9567    
    997000   9.4374367     -634.1135       0             -633.99761     -649.19975      1376.1532    
    998000   10.950762     -634.11016      0             -633.97569      2010.807       1374.5646    
    999000   9.0647713     -634.10675      0             -633.99544     -2257.5668      1376.7341    
   1000000   10.103498     -634.08633      0             -633.96226     -731.5993       1378.7273    
   1001000   9.4361121     -634.10797      0             -633.9921      -317.7693       1375.7902    
   1002000   10.848934     -634.10634      0             -633.97311      3045.4354      1373.7155    
   1003000   8.6991894     -634.10565      0             -633.99883      891.32917      1375.4277    
   1004000   9.8754946     -634.09508      0             -633.97381      1119.1767      1374.3367    
   1005000   9.8954996     -634.0843       0             -633.96279      444.63964      1378.0851    
   1006000   8.7492736     -634.10106      0             -633.99362      2055.2144      1377.2115    
   1007000   11.225755     -634.10385      0             -633.96601      39.1129        1376.9433    
   1008000   10.04173      -634.11923      0             -633.99592      1224.1083      1373.8475    
   1009000   10.0222       -634.10227      0             -633.9792       328.06813      1375.1044    
   1010000   10.390522     -634.12471      0             -633.99712      1307.9879      1375.1076    
   1011000   9.9377089     -634.08944      0             -633.9674      -613.06559      1375.4238    
   1012000   9.6920944     -634.11323      0             -633.99421     -854.49755      1379.1979    
   1013000   10.851604     -634.103        0             -633.96974     -693.20671      1377.0117    
   1014000   10.326042     -634.10318      0             -633.97638      905.39554      1375.4517    
   1015000   8.9292696     -634.09808      0             -633.98843     -1333.7389      1377.832     
   1016000   10.20661      -634.09248      0             -633.96714     -828.73841      1375.8322    
   1017000   9.5326534     -634.10888      0             -633.99182     -1184.4413      1376.5563    
   1018000   10.273252     -634.0976       0             -633.97145     -1797.1255      1379.5183    
   1019000   9.3868106     -634.10842      0             -633.99315     -2605.9769      1376.7791    
   1020000   11.193145     -634.10359      0             -633.96615     -1504.1583      1375.3442    
   1021000   9.4196894     -634.09578      0             -633.9801       451.89913      1375.8135    
   1022000   10.729611     -634.084        0             -633.95224     -1592.9503      1376.8939    
   1023000   10.204833     -634.10252      0             -633.97721     -1585.9917      1378.8433    
   1024000   11.631086     -634.10416      0             -633.96133      1621.9609      1376.8304    
   1025000   9.1394031     -634.09555      0             -633.98333     -1545.2274      1379.8963    
   1026000   10.923801     -634.11311      0             -633.97897      424.6623       1375.0963    
   1027000   9.868158      -634.08527      0             -633.96409      249.15253      1378.8536    
   1028000   9.2889271     -634.11812      0             -634.00406      276.02664      1375.3886    
   1029000   10.194373     -634.09428      0             -633.96909      228.77883      1376.9303    
   1030000   9.5886494     -634.11172      0             -633.99397     -420.318        1375.8284    
   1031000   10.405341     -634.09355      0             -633.96577      722.50853      1376.9368    
   1032000   9.3115765     -634.10139      0             -633.98704      1831.4866      1377.771     
   1033000   9.789639      -634.09361      0             -633.97339      952.21663      1377.2811    
   1034000   10.529166     -634.10841      0             -633.97912      998.45933      1372.9889    
   1035000   9.0155458     -634.08883      0             -633.97812     -1572.585       1377.3099    
   1036000   11.28401      -634.0992       0             -633.96064      524.36867      1375.142     
   1037000   10.288844     -634.11806      0             -633.99172     -2624.2478      1379.9669    
   1038000   9.354403      -634.08651      0             -633.97165     -1859.6286      1380.0516    
   1039000   9.4626695     -634.11249      0             -633.99629     -79.464508      1377.8193    
   1040000   10.168873     -634.09677      0             -633.9719       2613.3469      1374.0383    
Loop time of 5.38049 on 1 procs for 80000 steps with 96 atoms

Performance: 1284.641 ns/day, 0.019 hours/ns, 14868.534 timesteps/s, 1.427 Matom-step/s
99.1% CPU use with 1 MPI tasks x no OpenMP threads

MPI task timing breakdown:
Section |  min time  |  avg time  |  max time  |%varavg| %total
---------------------------------------------------------------
Pair    | 4.7404     | 4.7404     | 4.7404     |   0.0 | 88.10
Bond    | 0.0024896  | 0.0024896  | 0.0024896  |   0.0 |  0.05
Neigh   | 0          | 0          | 0          |   0.0 |  0.00
Comm    | 0.17568    | 0.17568    | 0.17568    |   0.0 |  3.27
Output  | 0.0098272  | 0.0098272  | 0.0098272  |   0.0 |  0.18
Modify  | 0.42766    | 0.42766    | 0.42766    |   0.0 |  7.95
Other   |            | 0.02447    |            |       |  0.45

Nlocal:             96 ave          96 max          96 min
Histogram: 1 0 0 0 0 0 0 0 0 0
Nghost:            522 ave         522 max         522 min
Histogram: 1 0 0 0 0 0 0 0 0 0
Neighs:              0 ave           0 max           0 min
Histogram: 1 0 0 0 0 0 0 0 0 0
FullNghs:         3080 ave        3080 max        3080 min
Histogram: 1 0 0 0 0 0 0 0 0 0

Total # of neighbors = 3080
Ave neighs/atom = 32.083333
Ave special neighs/atom = 0
Neighbor list builds = 0
Dangerous builds = 0


write_data amorphousSiO.data
System init for write_data ...


Total wall time: 0:01:17
