96
 Atoms. Timestep: 0
2 0 7.95642 4.74695
2 4.63304 0 11.358
2 0 4.63304 4.74695
2 7.95642 0 11.358
2 0 4.63304 8.47514
2 7.95642 0 1.8641
2 0 7.95642 8.47514
2 4.63304 0 1.8641
2 10.7421 8.43088 6.61105
2 4.15858 10.7421 0
2 1.84736 4.15858 6.61105
2 8.43088 1.84736 0
2 1.84736 8.43088 6.61105
2 8.43088 10.7421 0
2 10.7421 4.15858 6.61105
2 4.15858 1.84736 0
2 10.5201 6.29473 5.04003
2 6.29473 10.5201 11.6511
2 2.06934 6.29473 5.04003
2 6.29473 2.06934 11.6511
2 2.06934 6.29473 8.18207
2 6.29473 2.06934 1.57102
2 10.5201 6.29473 8.18207
2 6.29473 10.5201 1.57102
2 10.1594 8.65935 9.20274
2 3.93011 10.1594 2.59169
2 2.43004 3.93011 9.20274
2 8.65935 2.43004 2.59169
2 2.43004 8.65935 9.20274
2 8.65935 10.1594 2.59169
2 10.1594 3.93011 9.20274
2 3.93011 2.43004 2.59169
2 2.43004 3.93011 4.01936
2 8.65935 2.43004 10.6304
2 10.1594 8.65935 4.01936
2 3.93011 10.1594 10.6304
2 10.1594 3.93011 4.01936
2 3.93011 2.43004 10.6304
2 2.43004 8.65935 4.01936
2 8.65935 10.1594 10.6304
2 0 10.703 0
2 1.88643 0 6.61105
2 0 1.88643 0
2 10.703 0 6.61105
2 0 0 1.872
2 0 0 8.48305
2 0 0 11.3501
2 0 0 4.73905
2 11.2706 2.31295 2.18973
2 10.2765 11.2706 8.80078
2 1.31887 10.2765 2.18973
2 2.31295 1.31887 8.80078
2 1.31887 2.31295 2.18973
2 2.31295 11.2706 8.80078
2 11.2706 10.2765 2.18973
2 10.2765 1.31887 8.80078
2 1.31887 10.2765 11.0324
2 2.31295 1.31887 4.42131
2 11.2706 2.31295 11.0324
2 10.2765 11.2706 4.42131
2 11.2706 10.2765 11.0324
2 10.2765 1.31887 4.42131
2 1.31887 2.31295 11.0324
2 2.31295 11.2706 4.42131
1 11.0086 7.83654 8.10972
1 4.75292 11.0086 1.49867
1 1.5809 4.75292 8.10972
1 7.83654 1.5809 1.49867
1 1.5809 7.83654 8.10972
1 7.83654 11.0086 1.49867
1 11.0086 4.75292 8.10972
1 4.75292 1.5809 1.49867
1 1.5809 4.75292 5.11238
1 7.83654 1.5809 11.7234
1 11.0086 7.83654 5.11238
1 4.75292 11.0086 11.7234
1 11.0086 4.75292 5.11238
1 4.75292 1.5809 11.7234
1 1.5809 7.83654 5.11238
1 7.83654 11.0086 11.7234
1 10.1088 10.1088 3.30552
1 2.48067 10.1088 9.91657
1 2.48067 2.48067 3.30552
1 10.1088 2.48067 9.91657
1 2.48067 10.1088 3.30552
1 10.1088 10.1088 9.91657
1 10.1088 2.48067 3.30552
1 2.48067 2.48067 9.91657
1 0 1.60471 1.57853
1 10.9848 0 8.18958
1 0 10.9848 1.57853
1 1.60471 0 8.18958
1 0 10.9848 11.6436
1 1.60471 0 5.03252
1 0 1.60471 11.6436
1 10.9848 0 5.03252
96
 Atoms. Timestep: 2000
2 12.5912 8.30915 5.78121
2 4.3077 12.1847 11.557
2 12.5349 4.50628 5.21522
2 8.20303 12.3203 11.7568
2 12.383 3.98307 8.16033
2 8.0289 0.250569 1.84306
2 12.0633 8.08968 8.11083
2 4.82163 0.349989 1.98527
2 9.93523 8.10449 6.57979
2 4.99885 11.5184 -0.144791
2 1.46309 4.12118 7.09569
2 8.17891 2.25729 13.2459
2 1.45724 8.79492 7.08126
2 7.83703 10.9018 0.458183
2 10.4897 4.35102 6.60531
2 3.91507 1.34694 0.017634
2 10.7927 6.47101 4.39538
2 6.24076 10.2872 12.4459
2 1.06589 6.32934 5.0891
2 5.90073 1.32855 12.1251
2 1.35188 6.24784 8.14298
2 6.54425 2.57567 1.50313
2 10.8784 6.03268 8.62137
2 6.71445 11.6394 2.08131
2 9.95873 7.77374 9.95648
2 3.70213 10.98 1.96786
2 2.15607 3.16532 9.09175
2 9.75107 2.00859 1.84769
2 1.66584 8.966 9.2978
2 9.67923 11.6543 3.24191
2 9.39947 3.26899 8.26162
2 3.4994 3.08855 2.15777
2 1.93129 3.73732 4.86595
2 8.7352 0.841919 10.4812
2 10.7879 9.67984 4.76447
2 3.01298 10.2712 10.9596
2 10.3849 3.67318 3.68881
2 3.03564 1.68848 11.0337
2 2.35854 8.47136 4.12285
2 8.59247 10.0146 11.5934
2 11.3095 11.4323 12.5998
2 2.62026 12.0657 6.23917
2 0.0227643 2.02761 13.1067
2 11.5768 12.2952 6.13678
2 0.0385043 12.7355 1.23931
2 0.6134 0.41047 7.72843
2 12.2197 0.15254 11.0853
2 1.14166 -0.181002 5.01862
2 11.9263 2.12383 2.11113
2 11.6704 12.3371 9.06866
2 1.53258 10.4601 2.38995
2 2.8044 0.653271 8.40417
2 1.59009 2.06128 2.05701
2 1.57207 11.5435 8.89424
2 10.9805 10.6414 1.75057
2 10.6169 0.844404 8.16841
2 0.639719 11.5755 11.0235
2 2.90216 1.35824 3.81502
2 11.1464 2.61073 10.7013
2 12.1663 11.3851 3.77483
2 11.1611 9.80794 11.2507
2 12.1655 1.34054 4.31024
2 0.559273 1.94694 10.0815
2 2.88965 11.2604 4.15102
1 10.3453 7.6273 8.45487
1 5.00804 11.7123 1.52342
1 1.04092 4.65684 8.65609
1 8.21035 1.81549 1.55059
1 1.02132 8.06864 8.34029
1 8.40762 11.6612 1.92286
1 10.8127 4.49354 8.05081
1 4.69786 2.09933 1.35166
1 1.28514 4.88375 5.69673
1 7.656 1.08599 12.0034
1 11.0529 7.97365 5.2092
1 4.51208 10.6 12.1054
1 10.8571 4.75982 4.86578
1 4.2739 0.801121 12.152
1 1.23689 7.98533 5.34026
1 7.58606 10.9724 12.365
1 10.7832 10.5583 3.45481
1 1.65389 10.5838 10.1729
1 2.02687 2.92811 3.43064
1 9.7736 1.81791 9.3977
1 2.94436 9.76843 2.86831
1 9.83271 8.68573 11.3648
1 10.8503 2.12899 3.24317
1 2.15314 1.61216 9.58095
1 0.328142 1.34462 1.27071
1 11.8875 0.00162901 7.63451
1 11.9206 11.3845 0.454607
1 1.93324 12.4333 7.65903
1 11.8799 11.606 10.9956
1 2.63831 -0.0126792 4.72833
1 12.5407 1.80999 11.4867
1 12.3502 12.6664 4.74355
96
 Atoms. Timestep: 4000
2 12.1512 8.23813 4.84511
2 5.40165 12.3473 11.5206
2 11.8834 4.98096 4.60821
2 8.6207 12.0744 11.2698
2 12.1505 4.41726 8.29866
2 7.99826 12.1003 1.63494
2 0.818353 7.69547 8.50708
2 6.13706 0.280146 2.5943
2 11.1862 7.91903 7.44833
2 4.94839 11.0821 1.02162
2 1.32097 4.67333 6.89541
2 9.45263 1.71551 10.8069
2 1.99994 8.15801 6.24135
2 8.01748 9.9551 0.335009
2 10.7516 4.99271 6.61419
2 5.00874 2.44265 12.3762
2 10.1484 6.93414 5.42011
2 6.79889 9.94882 11.5405
2 1.0057 6.49539 4.49885
2 6.58425 1.36169 10.477
2 2.30764 6.3094 8.67817
2 5.89072 2.58323 2.02107
2 10.9624 6.57556 8.92623
2 6.40403 10.2765 2.46762
2 11.8952 8.12487 10.8751
2 3.77534 10.9101 3.47565
2 1.84044 4.29383 10.0981
2 8.54866 2.02628 2.83413
2 3.27654 8.81342 9.03584
2 9.10923 10.6673 3.16217
2 9.47451 3.35047 8.10294
2 3.23421 3.61703 1.80456
2 1.06641 4.69728 3.43016
2 8.35295 0.7407 8.59848
2 10.2479 9.88102 5.24261
2 4.47048 10.3759 10.8665
2 8.9506 4.19239 4.9113
2 3.51919 2.17877 10.57
2 2.47214 9.37549 4.43911
2 9.85703 9.39882 11.8038
2 12.3612 9.7672 12.3394
2 1.64471 1.25945 6.67481
2 12.391 1.49001 11.6079
2 9.8797 10.3307 7.9591
2 0.176826 12.2885 0.682085
2 0.0226636 12.563 8.14685
2 11.5984 11.9278 10.655
2 12.3681 0.922805 5.17167
2 11.2046 1.03746 0.270893
2 12.3686 10.692 9.04058
2 2.26996 11.6288 6.67765
2 1.49113 1.47841 9.05354
2 0.766512 2.63106 1.05196
2 2.54356 11.8066 8.84162
2 11.268 10.407 2.30707
2 10.5089 0.0757529 6.82407
2 1.63193 10.5716 10.2915
2 1.29338 2.62555 3.83184
2 10.8895 1.74768 8.9181
2 11.4857 11.7578 3.86733
2 10.8726 6.90387 0.284488
2 9.55695 1.53809 5.80707
2 1.84494 2.61841 12.303
2 2.30638 0.223225 4.47041
1 11.8326 8.0613 9.00412
1 5.21538 11.4867 2.49446
1 1.25507 5.08337 8.66149
1 7.29632 1.02394 1.91201
1 2.36532 7.80192 8.07049
1 7.84507 10.4217 1.97232
1 10.4408 4.95305 8.3213
1 4.58279 2.97625 0.695085
1 1.1105 4.8395 5.18899
1 8.0888 0.781343 10.2818
1 10.7464 8.42286 5.84145
1 5.43865 10.8087 12.2601
1 10.2159 5.33129 5.0576
1 5.05615 1.54672 11.0785
1 1.17594 8.04998 4.74995
1 8.42294 10.3467 11.9769
1 10.4884 10.4688 3.6073
1 3.25367 10.3602 9.85253
1 1.82078 3.74052 2.29367
1 9.42009 1.63712 7.51729
1 2.81474 11.1966 4.74736
1 10.762 7.93594 12.0219
1 8.31722 2.60416 4.47962
1 2.12496 2.67141 10.6598
1 0.553344 1.07382 -0.293505
1 11.3511 11.5216 8.0046
1 12.4895 10.3906 1.04784
1 1.68959 0.0882293 7.79645
1 0.240091 10.6504 10.6451
1 1.31845 1.37417 4.81602
1 11.1922 1.27326 10.6368
1 10.8781 0.490695 4.86175
96
 Atoms. Timestep: 6000
2 0.982599 8.96765 6.08739
2 5.53245 11.7373 11.1411
2 12.0321 5.34119 4.42581
2 8.31875 10.6879 10.6903
2 0.105609 5.71739 8.68364
2 7.95984 12.1035 2.82632
2 10.104 6.19412 8.60715
2 6.07702 0.530083 1.98657
2 10.8575 8.76192 6.78607
2 4.31774 10.9261 0.886258
2 1.03887 5.30346 6.27568
2 11.0447 10.9766 10.595
2 3.33599 7.80048 7.23271
2 7.95386 9.86757 0.939318
2 10.9171 5.14299 6.42373
2 4.93316 2.52105 11.9718
2 11.5957 7.29729 4.54864
2 6.32692 9.56769 12.1552
2 1.97411 7.05675 4.6797
2 6.67393 0.743239 9.52292
2 2.65144 6.38406 8.95905
2 6.7173 2.43547 1.01158
2 9.48867 6.94941 6.19483
2 6.14603 10.6433 2.21163
2 8.42274 7.49564 8.59465
2 4.2548 11.774 3.69764
2 1.71798 3.94661 8.53445
2 7.44551 3.15595 3.24871
2 3.73057 8.98824 10.0123
2 8.47431 10.5219 3.94779
2 10.973 3.40365 8.83081
2 4.41986 4.05247 1.80671
2 1.82545 5.05671 2.98087
2 9.4866 0.332684 9.14244
2 11.1237 9.92765 4.38775
2 3.30074 9.76702 11.7467
2 9.43405 4.91874 3.92696
2 3.41632 1.91292 10.2889
2 3.11092 9.62748 4.82617
2 7.54946 7.78785 10.9336
2 0.960777 10.737 1.39543
2 1.0791 3.44293 4.49411
2 1.42524 11.4193 11.0392
2 10.3723 8.65685 9.19646
2 1.16057 1.18108 1.16059
2 11.966 11.2902 8.4011
2 11.2086 10.9914 12.8454
2 12.4591 1.5298 5.02821
2 11.6308 1.44749 11.9453
2 12.11 8.01529 1.1988
2 2.59157 0.240317 6.32052
2 1.88088 1.31723 8.77325
2 1.70661 3.31389 0.741263
2 2.4839 11.1515 9.36461
2 11.143 12.0067 2.91781
2 10.9583 1.22143 7.30425
2 1.0104 9.16607 11.5602
2 2.38841 2.84647 2.96462
2 11.5184 0.591705 9.5772
2 10.4743 12.2033 5.07726
2 5.69242 7.43504 8.76701
2 9.67771 2.64294 4.93398
2 1.34588 2.78938 11.1966
2 2.06159 11.4893 3.44618
1 9.64428 7.73326 7.74134
1 4.91694 11.7164 2.33912
1 1.74552 5.56253 8.15742
1 7.25203 1.7202 2.35929
1 4.04647 7.51872 8.68923
1 7.56995 10.5768 2.46438
1 10.8247 4.73133 8.24314
1 5.38863 3.38507 0.565338
1 1.45299 5.33196 4.59304
1 7.89807 11.6093 9.31696
1 11.6786 8.88186 5.25783
1 4.65015 10.4905 12.1689
1 10.5103 5.65133 4.79816
1 5.36851 1.53075 10.5535
1 2.37126 8.28498 6.10484
1 8.07947 9.3052 12.0774
1 10.2228 11.1203 3.87876
1 2.34578 9.78937 10.3806
1 2.39568 4.1157 1.85697
1 10.5074 1.68294 8.73238
1 2.96199 11.3232 4.82976
1 7.18829 7.52756 9.55318
1 8.44466 3.82086 4.22622
1 1.98542 2.68971 9.55907
1 0.767251 2.38628 12.6868
1 11.4163 9.96871 9.51124
1 0.790731 12.0367 2.57221
1 1.51408 11.9846 8.25677
1 0.261997 9.54601 13.0147
1 1.38298 1.92987 3.75874
1 11.6641 12.1673 11.42
1 10.8135 1.59731 5.57741
96
 Atoms. Timestep: 8000
2 1.85019 7.74491 5.52473
2 4.56617 0.938218 12.3923
2 8.96535 7.26045 5.58092
2 7.79966 11.6744 11.2223
2 0.226094 5.30936 7.86954
2 8.2983 12.1226 1.90867
2 10.0549 6.08475 8.6825
2 6.36897 1.26511 2.85643
2 11.5677 8.99034 6.27418
2 4.40992 0.0545303 1.75003
2 2.35649 5.34886 7.49061
2 11.2657 10.1163 8.76322
2 3.47221 8.29034 7.31939
2 7.57746 9.84021 0.596218
2 10.4268 5.34476 6.23343
2 6.07719 2.24193 11.8563
2 0.347654 6.24133 3.79787
2 4.95741 10.9167 12.3247
2 4.15527 6.54812 6.64005
2 6.31103 1.47986 10.024
2 1.80571 7.35366 9.23235
2 7.27688 2.35699 0.731009
2 8.47089 5.37494 7.17662
2 6.53702 11.1695 3.51365
2 7.04902 7.36825 9.54613
2 3.53728 12.3023 3.82242
2 2.18473 4.04403 9.04991
2 9.23316 2.35801 2.314
2 2.92144 10.1424 9.78592
2 9.13444 9.74386 2.98417
2 10.7215 3.41526 8.58224
2 4.17807 3.00921 0.48669
2 4.57947 3.60683 7.31266
2 8.76 1.32336 9.04214
2 11.6607 8.15149 3.57837
2 2.68667 12.2788 12.0437
2 9.15735 4.77415 4.23375
2 3.64281 2.52237 10.5858
2 3.66281 9.59545 5.50235
2 6.08572 9.84257 10.8852
2 0.796912 9.60163 0.846722
2 2.75266 4.13791 5.22075
2 0.581433 11.0463 10.459
2 11.2545 11.4801 5.62198
2 2.62169 11.3657 1.66011
2 0.809888 11.1174 7.55876
2 11.1658 9.62607 11.6351
2 0.298243 2.51273 4.69298
2 11.493 0.46537 11.1421
2 11.1644 8.32036 1.22549
2 2.81489 12.1454 6.47007
2 0.180474 0.853261 8.72891
2 1.08311 2.35235 13.0518
2 2.57136 12.1803 9.15367
2 11.9416 10.5523 2.43601
2 10.5501 1.55657 6.94842
2 12.1268 7.06118 12.6797
2 1.85037 2.6533 2.70287
2 10.5851 0.263296 9.368
2 0.850827 0.660787 6.19637
2 4.38757 8.75153 9.69589
2 10.7503 2.12697 4.12811
2 0.326153 2.37355 10.9491
2 2.10661 10.4864 3.58837
1 8.303 6.34385 8.66105
1 5.26067 0.203613 3.10515
1 1.66756 5.66357 9.22819
1 7.77236 1.46305 1.95584
1 2.81625 8.51408 8.92766
1 7.80875 10.5397 2.28459
1 10.9914 5.11274 7.8501
1 5.8064 3.20761 0.28439
1 3.60133 4.70204 6.43132
1 7.66141 0.718337 9.96109
1 12.3242 7.62841 5.22209
1 3.90501 11.9264 13.0597
1 9.04413 5.70355 5.41753
1 4.88662 1.5745 10.766
1 3.70631 7.98523 5.64361
1 6.64787 10.7669 12.1857
1 11.105 9.2062 2.59676
1 2.20326 11.3653 10.6281
1 2.26198 2.66088 1.04045
1 10.5698 1.66112 8.60021
1 3.16388 11.2602 5.05256
1 5.96724 8.5141 9.86065
1 9.80217 3.45094 3.56271
1 1.81899 2.76512 10.3905
1 11.8243 1.7943 12.3028
1 11.6039 10.4388 7.00821
1 1.21171 10.8199 2.01503
1 1.56732 0.570988 7.60272
1 11.9451 8.88192 12.8782
1 1.76619 3.23686 4.13939
1 11.3915 11.0657 10.3121
1 11.3544 1.04552 5.72174
96
 Atoms. Timestep: 10000
2 1.47547 7.40527 5.01966
2 4.25441 1.52713 12.4998
2 10.0278 7.52779 2.89527
2 7.0096 0.52679 11.0503
2 1.93663 4.48433 7.51517
2 8.77146 0.422449 2.39731
2 11.6989 5.47175 8.77491
2 5.26726 1.60695 3.66177
2 11.8896 9.42462 6.28103
2 4.76517 12.0163 1.43041
2 4.46604 4.05503 6.99603
2 11.5122 10.9401 8.586
2 3.61507 8.07441 7.08436
2 7.43129 10.9022 0.760952
2 10.6407 4.54207 6.26134
2 5.13913 2.96144 1.03999
2 11.5345 6.58234 4.51828
2 5.75911 11.355 12.1526
2 3.1951 5.59489 5.73672
2 4.88018 3.03205 11.1291
2 4.318 5.89883 8.24846
2 6.78098 2.02251 2.09523
2 9.02177 6.98678 7.33325
2 6.89258 11.4677 2.94507
2 8.87547 7.06523 9.7192
2 4.67296 10.6167 3.44015
2 3.10234 4.34046 10.0586
2 9.44116 2.77002 2.67567
2 2.99193 8.99 9.33838
2 9.45822 9.91972 2.28351
2 8.39594 2.88812 6.19726
2 11.1614 4.97118 2.44827
2 4.817 3.82947 3.89338
2 6.97639 2.47392 9.31463
2 11.8934 9.20902 3.72134
2 3.4468 11.3262 11.0947
2 9.4415 4.82957 4.10497
2 2.44364 3.80309 12.4519
2 3.46447 8.15776 4.7472
2 7.5169 9.6095 10.5566
2 1.29929 8.99856 12.3301
2 2.74778 3.19834 4.71424
2 1.81241 10.4186 8.00553
2 12.2547 0.23362 7.13458
2 2.66943 11.281 0.656234
2 1.0485 11.4064 5.52418
2 11.4641 9.69709 11.0439
2 0.340225 3.32833 5.96461
2 10.9251 11.9863 10.8195
2 10.8034 8.64702 0.490942
2 1.88035 11.023 4.39518
2 0.267583 1.521 11.5381
2 11.7539 2.21643 1.05451
2 1.96217 12.1131 9.75255
2 12.2834 9.86862 1.78385
2 9.66411 2.02879 8.39036
2 0.872965 6.38508 11.4597
2 0.405465 2.84999 3.46317
2 9.11105 10.7837 11.1743
2 11.8419 1.8145 9.11323
2 6.00086 7.70462 9.26711
2 10.6739 2.34216 6.03006
2 0.548643 4.68703 9.74832
2 2.71475 9.10328 2.21919
1 10.0136 6.65662 8.72071
1 5.24495 12.1006 2.933
1 3.46795 4.42426 8.19678
1 8.34703 1.78354 1.72827
1 4.32243 7.80736 8.64264
1 8.1998 10.8393 2.36262
1 12.1251 4.50437 7.18619
1 5.4706 2.89662 2.80433
1 4.10012 4.26738 5.45813
1 6.10709 1.93476 10.4309
1 12.2057 8.3451 5.085
1 4.20646 12.0131 12.6182
1 10.624 6.01206 3.43731
1 3.81124 3.19387 12.625
1 2.83847 7.16816 5.92179
1 7.34174 10.8761 11.5727
1 10.9924 8.91068 2.23098
1 2.64369 10.5752 9.80339
1 11.186 3.27691 2.28348
1 8.39277 2.74542 7.99008
1 3.32682 9.59962 3.8854
1 7.36989 8.12163 9.91872
1 9.61101 3.7222 5.29403
1 1.65664 4.95619 10.9494
1 10.9154 1.31045 12.3476
1 0.257278 10.673 7.03978
1 1.68033 9.97643 0.759289
1 0.896662 1.13978 10.1328
1 11.9307 8.13901 11.9498
1 1.14166 2.51675 4.88546
1 10.3999 10.5223 10.1494
1 11.0395 1.37157 7.49113
96
 Atoms. Timestep: 12000
2 1.37413 5.85452 6.41664
2 4.72958 6.64313 2.85332
2 10.1954 8.11296 1.55267
2 8.43316 1.74887 12.3613
2 2.77402 3.37059 8.31661
2 8.71239 1.4375 2.70565
2 10.8265 5.56561 7.8101
2 4.5608 0.722893 2.53983
2 11.2363 7.73004 8.78265
2 4.86637 9.59123 1.27647
2 3.27999 1.89342 6.92657
2 11.8301 9.49397 9.68428
2 3.56261 6.13537 7.80789
2 7.954 11.1188 11.9714
2 10.1684 5.82761 5.53215
2 4.59098 4.11925 2.2184
2 10.9609 7.39166 4.49558
2 5.69863 10.3538 10.7926
2 3.71445 4.58156 5.55346
2 6.2218 4.70637 12.7079
2 3.09039 8.14574 11.7689
2 6.60429 3.11833 2.35208
2 8.62904 8.30044 6.53079
2 6.65432 11.6362 2.5281
2 8.6669 6.45673 8.49149
2 4.65661 9.8516 3.51954
2 1.78415 5.90664 10.4239
2 9.92552 3.32591 3.16361
2 4.18349 9.03722 8.16697
2 9.59777 11.0297 1.87765
2 9.30625 4.63386 9.62304
2 11.1484 5.29038 2.34044
2 4.76953 2.53858 4.27798
2 7.68873 3.11689 10.5576
2 10.8599 9.80997 3.88434
2 3.84853 9.61828 10.03
2 9.01257 6.10328 3.67643
2 4.46047 6.33716 12.311
2 3.934 7.41884 5.24729
2 7.24093 9.17184 9.02861
2 0.947947 8.43195 0.291265
2 2.69084 3.17841 4.36886
2 1.54237 9.72171 8.09125
2 11.3128 10.8686 7.641
2 2.73422 10.3069 12.1476
2 11.5103 9.15025 6.41505
2 10.6859 8.48255 11.5214
2 11.7205 3.95494 5.29665
2 10.5415 11.9421 10.8136
2 10.9741 5.6998 10.6905
2 2.0806 8.03499 4.53626
2 1.92643 1.40677 10.0969
2 11.6411 2.64062 12.4173
2 3.30211 12.11 8.76718
2 11.693 10.2953 12.5606
2 10.2077 1.93627 8.88646
2 1.2984 6.45598 12.4616
2 0.637025 3.04627 2.65454
2 9.20297 10.1965 10.1135
2 0.805154 1.59174 8.10285
2 6.29083 7.34091 7.78806
2 7.50462 4.55548 3.98255
2 8.36525 3.9923 1.66838
2 2.24615 8.94319 2.52661
1 10.2056 6.16112 9.28761
1 5.06737 10.8072 2.36432
1 2.32602 4.97402 8.87423
1 8.09778 3.24287 3.15327
1 4.50621 7.50279 8.12645
1 8.33761 0.241265 1.39379
1 11.4004 5.0205 6.32547
1 5.0292 2.50702 2.60199
1 3.90239 2.82503 5.60903
1 7.62142 3.43787 12.2401
1 11.9282 8.79407 4.99786
1 4.29588 9.77799 11.6569
1 10.5282 6.85386 3.00566
1 5.09433 5.58466 1.75408
1 3.26314 5.91814 6.1465
1 7.46181 9.85458 10.526
1 10.3533 9.62954 2.40231
1 3.14018 10.3928 8.6779
1 10.8002 3.5784 1.75638
1 8.62956 3.17228 9.08467
1 3.73385 8.0445 3.50704
1 7.75779 8.06358 7.85578
1 8.30543 5.71424 5.22529
1 2.83134 6.50491 11.6569
1 0.375724 1.4519 11.2805
1 11.4173 9.30775 8.16143
1 1.65698 9.79913 1.0659
1 2.25436 1.79903 8.46188
1 11.2132 7.02547 12.1708
1 1.19613 3.28527 4.10168
1 10.5786 10.0775 10.9722
1 10.8943 1.04957 7.85548
96
 Atoms. Timestep: 14000
2 1.95512 5.91675 6.22004
2 3.18009 8.09129 1.53685
2 0.531186 6.31398 1.52107
2 5.35445 1.88608 11.715
2 3.90182 3.75768 9.96384
2 7.60477 0.981712 2.22731
2 2.14409 4.11444 8.60991
2 4.18557 1.40661 2.0164
2 11.3395 6.30073 8.39264
2 2.24457 11.0984 1.88531
2 3.97369 3.28421 7.83443
2 11.0148 10.2317 9.12037
2 5.51519 6.4766 9.55462
2 7.18655 10.2514 12.1129
2 6.74234 5.47833 1.99698
2 4.40402 3.79336 2.09094
2 1.55142 5.76639 3.85226
2 5.50742 10.4261 9.65825
2 4.49904 5.24407 5.60957
2 6.32602 4.56048 12.0084
2 4.22424 9.02269 10.9845
2 6.52943 2.70946 2.54028
2 9.73307 8.90573 7.45882
2 5.51633 10.3288 1.63252
2 8.99161 7.16628 9.44552
2 3.64633 9.98615 2.95783
2 2.69754 6.07433 9.23948
2 9.84222 2.18044 2.63701
2 4.94061 8.43691 7.85581
2 8.00199 9.35874 1.93239
2 9.29873 4.65204 10.2017
2 10.8308 4.33526 3.22237
2 5.10655 2.73379 5.09497
2 7.51026 3.58174 9.89474
2 10.6676 6.7699 4.00251
2 3.18003 9.96735 8.98972
2 8.22592 7.28035 2.89902
2 4.40276 5.72371 11.8302
2 3.77599 7.60065 4.28266
2 7.7451 9.41998 9.27778
2 11.1569 10.1159 12.144
2 2.83427 3.16307 5.97572
2 1.90994 9.72911 7.22007
2 10.9064 11.4029 7.32291
2 3.64812 10.9092 11.8087
2 11.574 8.58593 6.59047
2 10.1859 8.32863 12.3502
2 11.9352 4.30879 6.85103
2 11.3078 0.891615 11.1573
2 10.6213 6.44388 11.2002
2 1.6667 8.45752 4.63657
2 2.01612 2.71217 10.5381
2 11.9909 2.91666 1.06539
2 3.64268 0.851442 9.69361
2 10.2684 9.61174 2.48726
2 10.1463 2.408 8.42303
2 1.72856 7.29371 11.3015
2 11.6161 2.65042 4.43689
2 8.70075 10.9333 10.6654
2 1.78767 1.44768 8.77715
2 7.46653 7.50115 8.00094
2 8.61 3.81539 3.05109
2 7.85759 2.82442 0.49968
2 1.23266 9.12086 2.73021
1 10.0211 6.06364 9.60235
1 3.97103 11.174 1.63085
1 4.19414 5.46797 10.0632
1 8.04551 2.53571 2.26969
1 5.82585 7.23309 8.19186
1 7.13167 10.8222 1.99789
1 1.53288 5.44208 7.77135
1 4.87474 2.59797 3.03325
1 4.35154 3.66362 6.18868
1 6.54772 3.02855 11.2218
1 11.5075 7.91518 5.17965
1 4.0577 10.5095 10.2483
1 11.3864 5.70432 3.17107
1 5.3016 4.95998 1.3575
1 2.91678 6.25276 5.00677
1 7.07853 10.1423 10.5657
1 9.2861 8.23449 2.10909
1 3.29865 8.72897 7.7487
1 11.3271 2.7757 2.77102
1 9.12663 3.06625 9.61934
1 2.70393 8.73977 3.36313
1 8.59681 8.34978 8.48297
1 7.86168 5.27856 3.01601
1 3.40185 7.55746 11.7077
1 11.7725 2.47204 11.2807
1 11.2857 9.89712 7.47867
1 11.8991 10.487 2.00948
1 3.13027 2.47755 9.37435
1 11.4648 7.29972 12.0519
1 1.13066 2.9476 5.84793
1 10.2934 10.8681 10.3697
1 11.4585 1.48685 7.74868
96
 Atoms. Timestep: 16000
2 1.43748 5.32532 6.43261
2 3.32935 7.93348 2.39835
2 0.799065 6.94188 1.49294
2 5.2771 4.77396 10.2953
2 4.37473 3.24631 8.99069
2 7.834 11.7691 2.01733
2 11.9129 3.58091 8.00061
2 3.81603 1.1109 2.66196
2 11.1727 6.44981 8.26105
2 2.00452 11.147 1.35927
2 3.0119 1.69802 7.41094
2 12.0316 10.5665 9.46414
2 5.07199 6.05026 8.25712
2 7.49226 9.59066 12.4741
2 7.48974 5.17957 1.78561
2 5.01299 3.58047 2.35406
2 1.41673 6.20455 4.08891
2 5.41909 10.028 10.59
2 2.75531 3.34767 5.07938
2 6.4567 5.08879 12.1919
2 3.83953 9.13532 11.866
2 6.17741 1.5909 2.50641
2 10.041 9.65058 7.82843
2 5.92925 9.51526 2.4135
2 9.61458 8.16575 9.07853
2 4.64508 9.85327 2.84189
2 2.41794 5.73737 8.78481
2 10.4448 3.5148 2.32298
2 4.23582 8.24805 7.98986
2 8.86355 9.5936 2.91856
2 9.19972 5.681 9.66111
2 0.194126 5.1137 2.81798
2 3.94298 1.71148 4.62164
2 7.59623 3.174 10.1559
2 11.8539 7.88266 4.48612
2 3.27168 10.5535 9.4073
2 9.87688 5.83568 2.18338
2 4.33799 6.08043 1.3444
2 3.56748 6.774 4.62988
2 7.46121 10.1037 9.06665
2 11.444 10.422 11.9215
2 1.85428 0.717023 5.25216
2 1.34051 9.24288 7.50475
2 11.3214 0.37297 8.111
2 4.31818 11.5258 12.3561
2 11.5909 10.978 4.38039
2 9.69391 7.87115 0.985796
2 11.4644 2.03619 6.55405
2 11.4528 1.03597 10.9943
2 10.9789 7.17044 10.9944
2 2.30186 9.32525 4.4127
2 9.82738 3.23831 11.6667
2 11.934 2.63055 0.888463
2 3.37436 0.884232 10.5487
2 11.8167 9.63922 2.86208
2 10.1095 2.82495 9.02119
2 2.34762 7.20429 11.9056
2 0.717766 2.2067 3.93921
2 8.22354 11.4778 10.4231
2 1.52974 2.25751 9.24679
2 7.01845 8.47087 7.90406
2 8.63256 2.97299 1.37452
2 6.66898 2.88079 12.4101
2 0.331861 8.78384 0.737834
1 10.3537 6.75768 9.51241
1 3.71508 11.4724 1.95713
1 3.95805 5.06659 9.10941
1 7.44858 1.76006 1.29912
1 5.78069 7.44502 8.39721
1 7.45086 10.0289 1.92382
1 0.684259 5.17639 7.84904
1 4.85418 2.2501 3.37219
1 2.89945 2.04705 5.84342
1 6.42925 3.64435 11.0353
1 0.819265 9.28528 4.68598
1 3.8984 10.8181 10.8453
1 11.5292 6.60503 2.96043
1 5.99292 5.17958 1.53625
1 2.30098 5.17619 5.02492
1 7.01314 10.2227 10.7164
1 10.1398 8.85871 2.54123
1 2.60918 9.1189 8.57397
1 12.0991 3.4585 2.50301
1 9.18469 3.95873 10.2788
1 3.7887 8.41367 3.95351
1 8.5932 9.22332 8.25014
1 9.03778 4.38954 2.30296
1 3.51144 7.57711 0.889475
1 11.0795 2.15892 11.8986
1 11.5879 10.2554 8.03944
1 0.577234 10.3156 1.22334
1 3.39494 1.96869 9.19369
1 0.800373 7.5173 11.9416
1 11.9099 0.974603 4.92803
1 11.2683 11.1518 10.6738
1 11.5664 2.09729 8.53084
96
 Atoms. Timestep: 18000
2 2.3617 6.0751 6.29009
2 4.35907 8.1059 1.99988
2 1.16791 6.26887 1.69396
2 5.01658 4.23498 9.94815
2 4.32589 2.88176 8.62853
2 7.25084 11.2535 2.0395
2 0.630937 3.68192 7.76372
2 3.65 0.9038 1.88604
2 0.488464 5.85786 8.15921
2 2.70628 10.5455 1.05173
2 3.64616 1.63737 6.54336
2 11.917 11.0604 9.99852
2 5.84439 5.68094 8.18075
2 7.44122 9.14775 12.2792
2 5.70933 5.13843 2.88181
2 3.53523 3.6482 2.30646
2 2.50359 6.96045 3.95322
2 6.47374 9.95759 10.2197
2 3.17067 4.45961 4.68785
2 5.4962 4.88442 0.700485
2 4.9096 8.76419 11.3503
2 5.53327 1.51462 2.4115
2 10.488 9.9186 8.82047
2 5.82739 9.77429 1.1413
2 10.6295 7.65271 9.38235
2 4.65414 10.5586 2.96038
2 2.98208 4.45907 7.99865
2 8.96258 4.30629 3.60351
2 4.73163 7.95966 7.30778
2 7.15421 8.04953 2.86728
2 9.63399 5.94649 10.3718
2 11.5451 5.43841 3.18277
2 3.5597 2.23656 4.21762
2 6.94389 3.88275 10.5472
2 12.0002 7.99526 3.58976
2 3.59253 9.24932 9.50103
2 7.49456 5.68268 3.85518
2 3.3029 6.46877 1.05664
2 4.45242 7.39546 4.33413
2 8.95464 9.88674 10.0421
2 0.735283 11.6989 12.0507
2 1.32555 1.74153 5.09788
2 2.02119 9.28316 7.59117
2 11.9267 11.5787 7.04905
2 4.61788 10.8612 11.8696
2 12.2048 10.8126 4.92782
2 6.56708 6.85258 5.73951
2 10.9999 1.63535 6.39586
2 10.92 2.11507 11.9617
2 1.13914 6.2268 11.1993
2 2.65744 9.65544 4.06352
2 9.0388 3.98463 11.2815
2 10.3088 4.28364 1.64055
2 3.9604 11.5441 9.27737
2 0.74582 10.5355 2.59436
2 11.0678 1.29004 9.181
2 2.50548 8.21143 11.7479
2 11.1573 2.19203 3.36292
2 7.68776 11.9173 11.8126
2 1.98782 1.919 8.09203
2 7.78601 7.86691 8.45965
2 7.68237 2.8028 2.20514
2 6.60206 3.0353 12.5872
2 12.2366 8.79261 0.82872
1 11.3431 6.28017 9.82472
1 4.3064 11.0206 1.24382
1 4.51994 4.57458 8.48684
1 7.09754 1.20654 1.31204
1 6.62629 7.1218 7.52042
1 7.22845 9.40348 1.76806
1 1.63789 5.10826 7.41864
1 4.03763 2.09612 2.76142
1 2.86178 2.94338 5.37877
1 5.71267 4.10824 11.3934
1 1.10075 9.61166 3.86643
1 4.70333 10.4527 10.2385
1 1.06329 6.65073 3.17707
1 4.16445 5.13138 1.84171
1 3.34217 6.11922 4.97643
1 7.75135 10.3062 11.0276
1 7.4221 7.06155 4.36506
1 3.27914 8.66798 8.16633
1 10.6289 3.94613 3.13653
1 8.44385 4.82286 10.1489
1 4.18632 8.94765 3.44577
1 9.27812 8.50726 9.14857
1 7.44264 4.31161 2.86693
1 4.11672 8.05775 12.6949
1 10.2249 3.55024 12.276
1 0.645892 10.3302 8.2077
1 0.894732 10.5395 1.041
1 3.358 1.22395 8.38768
1 1.12644 7.24783 12.4785
1 11.2427 1.06061 4.38328
1 11.3093 0.832538 10.8035
1 0.401376 1.83218 7.87421
96
 Atoms. Timestep: 20000
2 2.78763 5.29058 7.19093
2 2.17974 7.20854 2.39689
2 11.5425 6.43063 1.87752
2 6.03374 3.83289 9.33734
2 4.42616 3.64768 7.653
2 8.11121 11.1774 0.361942
2 1.02848 3.93249 7.45493
2 4.42068 1.48462 2.07993
2 11.8825 5.47847 8.8011
2 2.25522 10.4617 1.13122
2 3.34284 1.81586 6.30359
2 0.275326 10.9286 9.89348
2 5.7598 6.39689 7.35295
2 8.07636 8.60911 12.1102
2 6.30981 5.2274 2.82435
2 5.33187 3.47598 1.68948
2 1.5097 6.21578 4.65161
2 6.69163 8.33997 9.3717
2 2.83973 4.25258 4.94964
2 6.19004 5.18164 12.1346
2 3.13345 8.39384 0.284917
2 6.66052 1.75424 1.50007
2 10.1812 9.56337 8.20469
2 5.69911 10.3518 0.925094
2 10.2159 7.22595 8.48435
2 3.73801 9.64872 2.49139
2 2.38241 4.61964 9.94318
2 8.69593 4.21769 3.62051
2 4.48932 8.49762 7.6708
2 7.51061 9.46895 2.80553
2 10.2011 4.84379 9.7532
2 11.2393 5.40354 4.31223
2 4.58464 2.308 3.98879
2 8.4411 3.84709 10.378
2 11.7005 8.07151 3.96446
2 4.25036 10.3282 9.26944
2 7.71267 6.72534 3.63665
2 3.97133 6.3372 1.4012
2 3.52582 7.44192 4.93177
2 8.64913 6.75232 9.82509
2 11.4033 11.4931 12.1534
2 1.84239 1.63046 4.45434
2 1.55947 9.25682 8.11452
2 12.076 11.8061 7.52904
2 3.83704 10.9163 11.3953
2 11.6324 11.0374 4.96158
2 6.62762 8.22696 5.76669
2 11.6339 1.91448 6.40771
2 0.298555 2.14588 11.8999
2 10.8684 7.17627 10.9478
2 1.63475 9.42831 3.3144
2 10.7919 4.18061 12.5929
2 11.7357 3.4499 2.71725
2 5.06076 1.42732 8.95049
2 11.4259 10.6412 2.58214
2 11.7023 2.139 9.77924
2 1.28794 7.0658 12.2427
2 10.8766 2.29194 4.57217
2 6.26621 11.6476 11.3705
2 2.12343 2.30869 7.87029
2 7.69684 8.56911 7.51367
2 6.69678 3.52489 3.79023
2 6.54928 2.6816 11.6943
2 11.2019 8.88114 12.7978
1 10.5047 6.37201 9.71708
1 3.83347 9.90871 0.746799
1 5.61531 4.94044 8.08316
1 7.32677 1.1149 12.0376
1 6.05327 7.95507 7.4373
1 7.27101 9.90225 1.08167
1 1.78625 4.9802 8.47055
1 5.83146 2.31936 2.86134
1 3.26487 2.66445 4.88715
1 6.78331 3.92585 10.7784
1 11.6454 9.64905 3.88773
1 5.1052 11.4943 10.1064
1 12.0618 6.75394 3.43091
1 5.19296 5.0543 1.4265
1 3.11535 5.85955 5.59586
1 7.70843 7.83008 10.5761
1 6.8845 8.3375 4.04433
1 3.39539 9.21461 8.71999
1 10.4667 4.05828 4.06886
1 9.79385 4.14224 11.3168
1 3.13553 8.58264 3.5633
1 9.37416 8.31007 7.6121
1 7.33689 5.13644 3.78694
1 2.54465 6.86652 0.835361
1 11.977 3.35309 1.0656
1 11.6699 10.3909 8.28948
1 11.8189 10.4719 0.920451
1 3.68673 2.10983 8.17851
1 11.4281 7.19053 12.5488
1 0.257314 1.20404 5.12349
1 12.1799 0.786214 10.7891
1 12.0426 2.04011 7.78329
96
 Atoms. Timestep: 22000
2 3.24655 6.45306 6.75157
2 1.49253 7.10796 3.20418
2 9.93641 7.55591 2.38692
2 6.92526 3.68939 8.67033
2 4.92289 3.89809 7.94468
2 8.8187 1.42218 10.9824
2 1.30295 3.97661 8.32392
2 3.99303 11.7783 1.71742
2 0.658769 6.1913 8.43811
2 2.3414 9.73517 0.995088
2 4.61501 2.14568 6.63274
2 11.9807 8.43261 8.92079
2 6.69925 6.00579 7.42517
2 7.89007 9.11721 11.7855
2 6.18445 4.45631 1.90563
2 4.62222 3.16861 2.15548
2 3.14114 6.75954 4.4851
2 6.81627 8.72504 8.93646
2 4.2517 4.25611 5.44297
2 5.61491 4.01808 11.2128
2 3.67695 8.67676 2.0735
2 6.23521 0.814653 0.768257
2 10.5313 10.2552 7.52896
2 5.78973 9.88156 1.35907
2 10.2907 7.67659 7.26037
2 2.16598 8.15551 6.32733
2 3.06374 7.28998 8.79007
2 8.69803 4.03514 3.81943
2 4.91026 8.35901 7.09299
2 6.78531 7.30096 2.34061
2 10.4951 5.95129 9.71844
2 10.0548 6.09462 4.78242
2 4.59958 1.39663 4.00281
2 8.02704 5.13351 10.5681
2 10.6442 9.20179 4.99123
2 4.21548 10.1168 8.63798
2 6.83757 5.22391 4.052
2 3.61871 5.72197 1.19014
2 5.28353 6.74942 4.41215
2 9.67202 8.45404 9.35434
2 11.745 11.6015 11.9405
2 2.13905 1.95856 5.1387
2 2.18542 9.58133 8.28607
2 1.22079 11.8874 9.12367
2 4.28479 10.468 11.1011
2 0.522301 11.7461 4.3574
2 6.77356 7.88064 5.75575
2 0.443648 1.69607 7.10324
2 10.9403 1.79008 0.828038
2 9.8554 6.59977 12.0046
2 1.09213 9.39546 4.2755
2 10.5773 4.02507 11.9017
2 10.916 3.68823 3.049
2 4.88102 1.30388 9.06422
2 11.9923 10.5896 2.37517
2 11.3331 2.28967 10.0673
2 1.33792 7.25742 1.14144
2 10.7536 2.94007 5.36896
2 6.22281 11.2328 10.4921
2 2.67583 2.47529 8.76037
2 8.15821 8.59798 6.92676
2 6.59605 2.22907 2.48288
2 6.84718 2.30183 11.1933
2 11.6291 8.95084 12.5625
1 10.8474 7.3386 8.74849
1 4.0228 10.2 0.914648
1 6.34824 4.44228 7.55248
1 7.16691 0.72542 11.4165
1 6.46392 7.86392 7.51715
1 6.83181 8.5727 1.0113
1 2.14581 5.88742 7.99783
1 5.17484 1.35812 2.36592
1 3.75282 2.55303 5.22443
1 7.11144 3.83699 10.3745
1 11.4404 10.2124 3.8653
1 4.78297 11.3492 9.85146
1 9.48957 7.4234 3.98321
1 4.77095 4.63517 1.03625
1 3.97727 5.94921 5.48692
1 8.20521 8.5967 10.1959
1 6.87759 7.0759 4.28939
1 3.41484 8.62042 7.94146
1 10.3009 4.23337 4.34786
1 9.56025 5.31665 11.1982
1 1.931 7.9831 4.75623
1 9.81191 8.94414 6.4015
1 7.08197 4.05186 3.0627
1 2.57227 7.04133 1.89659
1 11.1998 3.39702 1.3196
1 11.8699 10.1385 8.62727
1 0.756729 10.3573 0.684956
1 4.20078 2.4212 8.25087
1 10.8265 7.66323 0.974033
1 12.0403 1.7734 5.45547
1 10.6956 1.36985 11.4094
1 1.00631 2.32632 8.46754
96
 Atoms. Timestep: 24000
2 2.83667 6.09764 6.37237
2 2.4673 6.36537 3.16598
2 11.517 6.81396 1.59369
2 7.46538 3.87659 8.99099