96
 Atoms. Timestep: 0
2 0 7.95642 4.74695
2 4.63304 0 11.358
2 0 4.63304 4.74695
2 7.95642 0 11.358
2 0 4.63304 8.47514
2 7.95642 0 1.8641
2 0 7.95642 8.47514
2 4.63304 0 1.8641
2 10.7421 8.43088 6.61105
2 4.15858 10.7421 0
2 1.84736 4.15858 6.61105
2 8.43088 1.84736 0
2 1.84736 8.43088 6.61105
2 8.43088 10.7421 0
2 10.7421 4.15858 6.61105
2 4.15858 1.84736 0
2 10.5201 6.29473 5.04003
2 6.29473 10.5201 11.6511
2 2.06934 6.29473 5.04003
2 6.29473 2.06934 11.6511
2 2.06934 6.29473 8.18207
2 6.29473 2.06934 1.57102
2 10.5201 6.29473 8.18207
2 6.29473 10.5201 1.57102
2 10.1594 8.65935 9.20274
2 3.93011 10.1594 2.59169
2 2.43004 3.93011 9.20274
2 8.65935 2.43004 2.59169
2 2.43004 8.65935 9.20274
2 8.65935 10.1594 2.59169
2 10.1594 3.93011 9.20274
2 3.93011 2.43004 2.59169
2 2.43004 3.93011 4.01936
2 8.65935 2.43004 10.6304
2 10.1594 8.65935 4.01936
2 3.93011 10.1594 10.6304
2 10.1594 3.93011 4.01936
2 3.93011 2.43004 10.6304
2 2.43004 8.65935 4.01936
2 8.65935 10.1594 10.6304
2 0 10.703 0
2 1.88643 0 6.61105
2 0 1.88643 0
2 10.703 0 6.61105
2 0 0 1.872
2 0 0 8.48305
2 0 0 11.3501
2 0 0 4.73905
2 11.2706 2.31295 2.18973
2 10.2765 11.2706 8.80078
2 1.31887 10.2765 2.18973
2 2.31295 1.31887 8.80078
2 1.31887 2.31295 2.18973
2 2.31295 11.2706 8.80078
2 11.2706 10.2765 2.18973
2 10.2765 1.31887 8.80078
2 1.31887 10.2765 11.0324
2 2.31295 1.31887 4.42131
2 11.2706 2.31295 11.0324
2 10.2765 11.2706 4.42131
2 11.2706 10.2765 11.0324
2 10.2765 1.31887 4.42131
2 1.31887 2.31295 11.0324
2 2.31295 11.2706 4.42131
1 11.0086 7.83654 8.10972
1 4.75292 11.0086 1.49867
1 1.5809 4.75292 8.10972
1 7.83654 1.5809 1.49867
1 1.5809 7.83654 8.10972
1 7.83654 11.0086 1.49867
1 11.0086 4.75292 8.10972
1 4.75292 1.5809 1.49867
1 1.5809 4.75292 5.11238
1 7.83654 1.5809 11.7234
1 11.0086 7.83654 5.11238
1 4.75292 11.0086 11.7234
1 11.0086 4.75292 5.11238
1 4.75292 1.5809 11.7234
1 1.5809 7.83654 5.11238
1 7.83654 11.0086 11.7234
1 10.1088 10.1088 3.30552
1 2.48067 10.1088 9.91657
1 2.48067 2.48067 3.30552
1 10.1088 2.48067 9.91657
1 2.48067 10.1088 3.30552
1 10.1088 10.1088 9.91657
1 10.1088 2.48067 3.30552
1 2.48067 2.48067 9.91657
1 0 1.60471 1.57853
1 10.9848 0 8.18958
1 0 10.9848 1.57853
1 1.60471 0 8.18958
1 0 10.9848 11.6436
1 1.60471 0 5.03252
1 0 1.60471 11.6436
1 10.9848 0 5.03252
96
 Atoms. Timestep: 2000
2 12.4016 9.23837 4.66929
2 5.00569 11.7853 11.0824
2 12.6188 5.61532 4.68479
2 7.94241 12.3486 11.1263
2 12.7651 5.11088 9.16526
2 7.62543 12.3282 2.37647
2 -0.0139817 8.44835 7.77912
2 3.91494 12.7663 1.34539
2 10.7755 8.56086 6.8344
2 4.52957 10.506 13.3517
2 0.963118 5.11521 6.41319
2 8.04702 0.675524 -0.0234178
2 3.10045 7.95447 6.71176
2 7.91818 11.4496 13.163
2 11.146 5.08622 6.28986
2 4.19949 0.763649 12.7013
2 10.4361 6.81702 4.86692
2 6.70563 10.0896 12.0837
2 2.38769 6.30327 4.36184
2 6.04704 1.13601 11.1315
2 1.53687 6.60176 7.99322
2 6.00693 1.78661 1.60534
2 11.1243 6.61834 8.49152
2 6.19009 10.8026 1.70293
2 11.0893 8.77435 9.48523
2 3.62593 10.2779 2.55375
2 1.84887 3.68206 9.15902
2 8.52965 1.57528 2.87806
2 1.39731 9.19064 9.49034
2 9.4959 10.5024 1.6962
2 10.9313 3.45108 8.79631
2 2.95684 2.34655 1.96966
2 2.01111 3.8307 4.16457
2 9.42886 2.04898 11.4926
2 10.5184 9.02752 3.5962
2 3.73263 10.1014 10.8806
2 10.3988 3.94778 3.67358
2 3.20236 0.891727 10.5093
2 2.38327 8.62664 4.52067
2 9.28071 9.92993 11.1996
2 12.6638 11.46 0.0773202
2 1.86789 12.3867 6.5363
2 12.7059 2.5091 -0.252118
2 10.7624 -0.0425174 6.80667
2 0.28452 0.375171 1.22286
2 -0.0665873 12.5298 9.04193
2 12.0545 -0.178826 11.7382
2 12.5629 12.1943 4.86113
2 11.1748 2.16294 2.18655
2 10.6548 11.2577 9.32123
2 1.13658 10.6061 2.37589
2 1.57472 0.64835 8.71614
2 0.695568 3.04434 1.893
2 2.36416 11.5039 9.16066
2 11.6243 10.9462 1.84346
2 11.4637 1.22249 9.15974
2 0.590215 10.9395 10.8741
2 1.62736 1.00969 4.23148
2 12.0193 2.53295 10.6518
2 10.1281 11.8387 4.0855
2 11.3841 10.049 11.6793
2 10.9716 1.54165 4.64056
2 1.19253 2.32244 11.0121
2 1.68719 11.3014 4.78782
1 11.4214 8.0945 8.1807
1 4.67922 10.9153 1.22212
1 1.31723 4.92909 8.26841
1 7.59592 0.861368 1.86611
1 1.69246 8.27853 7.96986
1 7.86254 11.1836 1.23726
1 11.3447 5.01059 8.03825
1 4.39583 1.22666 1.19169
1 1.2507 5.31735 4.60781
1 7.81987 1.34444 11.8655
1 10.885 8.48884 5.07034
1 5.11536 10.4439 11.9935
1 10.9198 5.135 4.72445
1 4.6817 0.35572 11.3581
1 3.23121 7.39761 5.17792
1 8.19762 10.8081 11.7319
1 10.3976 10.561 2.93788
1 2.11021 10.239 10.5813
1 1.75702 2.45768 3.03667
1 10.4622 2.25455 10.1134
1 2.25951 10.0999 3.42194
1 10.4451 9.84495 10.1792
1 10.1687 2.33388 3.46638
1 2.35774 1.92252 9.66831
1 12.4263 1.93375 1.41438
1 11.504 12.6938 8.61158
1 0.207712 11.7058 1.75345
1 1.27325 12.1743 8.22161
1 12.4648 11.4472 12.1793
1 1.10286 -0.229672 4.95572
1 12.7834 1.58586 11.7398
1 11.2021 -0.172398 5.04332
96
 Atoms. Timestep: 4000
2 13.0355 7.51417 4.87202
2 4.48424 12.4 11.5825
2 0.363152 5.30455 4.96064
2 6.72153 12.4435 11.6781
2 0.423567 4.08103 7.94242
2 8.08053 -0.261451 1.17123
2 0.215834 7.46169 9.4252
2 4.35959 -0.114075 1.86081
2 10.8065 7.75205 7.07622
2 4.6509 10.8136 -0.0807123
2 2.36571 4.60292 6.03676
2 7.83425 2.64795 0.343772
2 0.834975 8.30901 7.58572
2 8.2085 11.1076 13.3593
2 11.7662 4.50957 6.88619
2 4.40226 1.00573 12.8271
2 10.876 6.169 4.9211
2 5.41203 10.4541 11.8011
2 1.89789 6.6552 3.72553
2 6.78392 1.79729 12.5962
2 1.83653 5.51034 8.53103
2 6.2527 1.20162 1.58877
2 11.2249 5.98628 9.04308
2 6.5936 10.7627 1.71932
2 10.3584 9.09672 9.19953
2 3.57822 11.2005 2.76828
2 3.10809 2.89747 8.49786
2 8.64074 1.97454 2.84968
2 2.26376 8.52796 9.54499
2 8.99485 10.3149 2.02649
2 11.2302 2.82534 8.91866
2 3.42519 2.14863 2.05308
2 2.51436 3.85063 3.7335
2 9.37464 2.17497 11.5145
2 10.1791 8.94586 4.56089
2 2.67919 10.2125 11.4966
2 11.3955 3.88571 4.0232
2 4.62613 1.34785 10.5358
2 1.38111 9.60508 2.68665
2 8.05645 10.2414 10.4052
2 11.7458 11.8116 -0.164349
2 1.83283 12.5127 6.59284
2 -0.126505 2.2407 12.9862
2 10.6424 0.0288483 6.8684
2 12.0975 0.771259 1.21863
2 -0.395551 12.1274 8.40395
2 -0.161452 12.6943 11.0893
2 -0.334238 -0.157419 5.53325
2 10.8687 2.79447 1.87856
2 10.294 11.4444 8.5921
2 0.898177 11.7918 2.00016
2 1.96969 0.916076 8.69736
2 0.679423 2.62861 1.80547
2 2.10307 11.5811 9.44183
2 11.6831 10.9701 2.16543
2 10.4795 0.614763 9.29314
2 0.190291 10.4236 11.2177
2 1.62701 1.49174 4.37795
2 11.9967 1.7588 11.1647
2 10.4902 11.3436 4.65322
2 10.6012 10.8875 11.0509
2 10.4496 0.824883 4.45154
2 1.7465 1.64392 10.6027
2 1.23722 11.9267 4.49015
1 11.6167 7.74977 8.5955
1 4.95208 11.2998 1.57298
1 2.18002 3.96805 7.41119
1 7.87642 1.3656 1.4167
1 1.53231 7.2037 8.8019
1 7.9284 11.1055 1.04218
1 11.7501 4.26744 8.66577
1 4.70163 1.36006 0.998607
1 2.12103 5.31179 4.44837
1 7.99893 2.63159 12.3134
1 11.0964 7.75461 5.26258
1 4.14327 11.0124 12.2856
1 12.0769 4.56865 5.32214
1 5.70676 0.742445 11.6206
1 1.00022 8.08858 3.79215
1 7.19721 10.9273 11.7021
1 10.2864 10.2235 3.26513
1 1.61368 9.99816 10.3268
1 1.98029 2.45285 2.89085
1 10.5103 2.02717 10.3014
1 1.86554 11.054 3.07999
1 9.80074 10.574 9.67049
1 10.3486 2.31625 3.38547
1 3.20189 1.52359 9.60783
1 12.5087 2.431 1.11363
1 11.2206 12.6164 8.32786
1 12.5465 12.2365 1.48457
1 1.40115 12.3111 8.22126
1 11.8435 11.4545 11.9074
1 1.63133 0.166407 5.16569
1 0.376531 1.28787 11.3854
1 11.1165 -0.356001 5.27225
96
 Atoms. Timestep: 6000
2 0.275239 8.27204 4.82894
2 4.29814 11.6499 11.4892
2 12.3613 4.96101 4.08201
2 6.36015 0.736898 10.7634
2 0.115748 3.59604 8.03962
2 8.04727 0.0173625 0.82095
2 0.718943 7.63934 8.92151
2 4.10681 0.343658 1.7726
2 11.3782 8.60697 7.01619
2 3.83072 10.4841 13.6095
2 1.35421 4.05514 6.40109
2 8.24833 1.37815 12.2897
2 2.27232 7.49083 6.81479
2 8.62465 10.8886 12.7524
2 11.0674 4.99098 6.33754
2 4.65853 1.23567 12.9583
2 10.859 7.25717 4.21317
2 6.39246 9.60488 11.7987
2 1.88827 6.0101 4.30845
2 6.74902 2.5857 9.9363
2 1.84717 5.7325 8.71415
2 6.33176 2.14685 0.63403
2 11.4826 5.90784 8.28585
2 6.25014 11.3471 1.22793
2 10.8403 8.25712 9.30466
2 3.60204 11.2571 2.83349
2 2.3106 3.38646 9.38388
2 8.71555 2.04188 2.09899
2 2.57981 8.6158 9.45558
2 9.06477 10.6048 2.31924
2 10.8015 3.23591 8.75281
2 3.80343 2.49123 2.04934
2 2.12868 3.5784 4.04538
2 9.2181 2.79163 10.4517
2 11.0948 10.0898 4.10943
2 3.22991 9.73141 11.2694
2 9.86692 4.26075 3.69134
2 4.08086 1.10959 10.1355
2 2.2093 9.1734 4.84036
2 8.50047 9.51403 10.2734
2 11.4371 11.4744 13.5353
2 1.86179 -0.257284 6.73503
2 12.5618 1.0241 0.467802
2 10.3735 0.0609012 6.91077
2 2.82524 1.5989 5.95974
2 12.2342 -0.281109 7.92908
2 12.1274 0.129235 11.8106
2 12.5462 0.225686 5.71469
2 11.2073 1.55997 3.24264
2 9.83858 10.9458 8.94805
2 1.20168 10.8935 2.36869
2 1.84442 0.564263 9.10737
2 0.947984 1.92436 2.46423
2 1.4604 10.8661 9.02679
2 10.8396 11.8204 2.10558
2 10.8738 1.30924 9.59443
2 0.484222 10.1474 11.2641
2 2.51043 1.07419 3.83648
2 11.7951 2.99666 11.5574
2 10.0722 12.5219 4.19088
2 10.8906 11.1031 10.6516
2 10.5204 1.88847 5.08227
2 1.08273 1.9652 10.5982
2 1.33277 11.6422 5.0018
1 11.8245 7.55452 8.2302
1 4.63297 11.2624 1.36912
1 1.86411 4.17644 8.03422
1 7.94643 1.61367 0.760956
1 2.31079 7.37273 8.60785
1 8.01413 11.1375 0.955956
1 11.4047 4.32334 7.83968
1 4.77705 1.75166 1.06172
1 1.1409 4.65327 4.85843
1 7.87409 1.98337 11.0304
1 11.2592 8.78117 5.14491
1 4.77785 10.1011 11.9423
1 10.8413 5.48472 4.5353
1 4.72528 0.508194 11.416
1 1.93809 7.52267 4.85582
1 7.90058 10.3998 11.3928
1 10.174 11.1972 3.21424
1 2.02088 9.91375 10.1795
1 2.43925 2.37961 2.96768
1 10.843 2.80959 10.2351
1 2.0556 10.4388 3.77545
1 10.1444 9.51591 9.87921
1 9.93315 2.51872 3.34758
1 2.70048 1.77829 9.91464
1 12.4061 0.987281 2.02329
1 10.7414 12.4029 8.61299
1 -0.211715 11.478 1.64337
1 1.26808 12.0947 8.0483
1 11.8443 11.3235 11.865
1 1.52988 0.766364 5.32345
1 0.147318 1.50394 12.16
1 10.8148 0.399219 5.57758
96
 Atoms. Timestep: 8000
2 0.0961076 7.06097 4.4612
2 4.07973 -0.156223 12.4052
2 0.185839 3.99849 4.62923
2 6.0163 1.89507 11.6052
2 0.0569417 4.47013 7.9416
2 8.5669 12.9414 -0.0458033
2 12.8801 8.23607 8.41493
2 5.20292 0.254563 1.51288
2 10.978 7.76672 6.80695
2 3.70433 11.6734 0.0999569
2 1.81866 4.25543 6.98837
2 8.02454 2.18134 -0.0646127
2 1.79083 8.46958 6.12336
2 9.49372 10.6556 12.8808
2 10.8013 4.21128 6.50323
2 5.05431 2.55669 -0.243006
2 11.087 5.82999 4.53797
2 4.87576 10.5739 11.2223
2 1.93908 5.84598 4.63574
2 6.79198 4.55118 12.0145
2 1.5086 6.91034 8.69906
2 6.67271 1.71793 1.76104
2 10.7401 6.05883 8.44278
2 7.13773 11.0335 1.14384
2 9.90762 8.79063 8.979
2 4.528 10.0666 1.74279
2 2.29504 3.96332 9.53349
2 9.63329 0.970428 1.88012
2 1.82032 9.53453 8.69582
2 10.0357 10.6095 1.49548
2 10.8435 3.74103 9.70885
2 4.14896 1.78672 2.92156
2 2.66369 3.07727 4.78929
2 8.1051 2.91697 10.9165
2 11.013 8.77542 4.21058
2 2.68782 11.1385 10.65
2 10.3044 3.12263 4.36323
2 3.87856 2.55188 10.7703
2 2.30142 8.01654 2.70598
2 8.27811 10.5872 10.3901
2 0.902061 12.5285 1.53019
2 0.254888 -0.612789 6.76341
2 0.603838 1.5351 0.055384
2 10.1979 12.4933 6.86563
2 2.52448 1.0753 0.963152
2 12.0412 0.0777608 8.98498
2 12.2379 -0.0495461 11.6788
2 12.286 11.7422 5.17247
2 12.2679 1.10047 2.82729
2 9.82674 11.7082 9.3682
2 1.76134 10.1551 1.67542
2 0.999103 1.26064 9.31694
2 1.29519 1.58868 3.00564
2 1.41094 11.873 8.92656
2 12.5 10.1078 2.94399
2 9.73123 1.17574 9.41795
2 0.0073555 10.4905 10.7903
2 2.34487 0.75504 5.38825
2 11.2508 2.04533 11.8359
2 10.2908 11.4849 3.71138
2 10.959 10.5855 10.7368
2 10.3244 0.721049 4.42515
2 0.770543 2.41136 11.3238
2 1.15387 11.5943 3.70414
1 11.0867 7.79647 8.30069
1 5.10512 11.5051 0.979186
1 1.73477 5.18518 8.40144
1 8.24781 1.11137 1.06458
1 1.81809 8.25904 7.96014
1 9.01077 11.2742 0.387611
1 11.2007 4.53279 8.22501
1 5.15743 1.79613 1.27322
1 1.60064 4.31259 5.29831
1 7.25201 2.79412 12.4993
1 11.5454 7.46428 4.99153
1 3.60624 11.2017 12.2162
1 11.3945 4.34982 4.95099
1 4.66584 1.45461 11.8613
1 1.94046 7.64793 4.37197
1 6.53331 10.6269 10.0152
1 10.7762 9.77394 2.99435
1 1.18151 10.5799 9.89915
1 2.81737 1.73236 4.09951
1 9.79704 2.47847 10.4086
1 3.1656 9.26681 1.76629
1 9.65697 10.0924 9.94718
1 10.7787 1.68918 3.21047
1 2.09128 2.44762 10.0407
1 0.643468 0.946745 1.80108
1 10.4457 -0.245532 8.5516
1 0.535141 11.1085 2.19246
1 0.567226 0.0243479 8.39655
1 12.1526 11.5249 11.5096
1 1.0933 12.5925 5.30987
1 12.9694 1.75031 12.1638
1 10.7748 12.1521 5.27083
96
 Atoms. Timestep: 10000
2 11.6664 8.10463 5.51148
2 6.08118 12.055 11.0008
2 12.6198 4.94905 3.49728
2 6.57671 2.00234 11.3396
2 0.177637 5.10942 7.99669
2 7.86373 0.485883 1.60185
2 0.0473231 8.05127 8.37138
2 4.28586 0.7217 0.681785
2 10.1793 8.51426 7.31217
2 4.5159 10.732 13.1243
2 1.26393 4.12058 6.12164
2 8.24831 2.93607 13.0428
2 1.68436 8.03779 6.45135
2 8.46388 11.0621 0.899274
2 10.4805 4.88732 6.9793
2 4.46313 1.27207 12.1832
2 10.2588 6.50384 5.06567
2 6.82556 9.78962 12.0725
2 1.17413 6.77616 4.31975
2 7.5824 3.45229 10.05
2 2.10569 6.08892 8.04138
2 6.42895 1.71542 0.99564
2 10.8301 6.36203 8.9567
2 5.60079 11.7282 1.20523
2 10.6441 9.05049 9.9183
2 3.73323 9.94842 2.66868
2 2.20801 3.36345 8.76376
2 9.31753 2.1664 2.22035
2 2.0247 7.79314 9.92134
2 7.96703 10.8367 2.79132
2 10.9414 3.29906 9.06015
2 3.33181 2.53879 1.51994
2 1.71991 3.46771 4.2701
2 9.3362 2.36269 10.9406
2 9.24518 9.69213 5.22669
2 4.22323 10.041 10.8559
2 9.15841 4.23395 4.20819
2 3.9455 1.71763 10.0631
2 1.30708 8.90842 4.04527
2 9.45944 10.0247 11.1749
2 12.333 10.5939 1.02919
2 2.5798 11.575 6.4628
2 0.866337 1.00826 0.318264
2 11.9696 0.514124 6.57315
2 11.4523 4.12864 3.35333
2 0.723533 11.8378 7.6667
2 0.443845 12.1183 12.28
2 0.649201 0.116464 4.8995
2 12.1326 0.442911 2.93089
2 10.2777 11.767 8.65228
2 2.13215 11.6054 3.81095
2 2.53685 0.687681 8.4981
2 1.76536 0.832015 2.85149
2 2.15561 10.6607 9.56272
2 9.85718 10.2596 2.47642
2 11.9566 1.37146 8.99671
2 0.922765 9.40638 12.0142
2 2.73643 1.34709 4.82475
2 11.9887 1.50083 11.2073
2 10.2744 11.9012 4.53369
2 8.21476 9.58641 8.72958
2 11.053 2.10764 4.50917
2 1.82045 1.30284 10.8565
2 2.33299 11.7657 1.742
1 11.3262 7.96676 8.60274
1 3.87023 11.6957 0.956998
1 1.56535 4.30145 7.63363
1 8.37162 1.87522 0.947087
1 1.69296 7.54044 8.1628
1 7.06291 11.78 1.57733
1 11.3096 4.82804 8.26925
1 4.86234 2.10827 0.300691
1 1.20342 5.07099 4.41804
1 8.01198 3.0119 11.5214
1 9.8704 8.27698 5.76031
1 5.32285 10.6954 11.5892
1 9.61483 5.19739 5.49835
1 5.35757 0.871025 10.8394
1 0.651313 7.83518 5.22904
1 8.83084 10.1874 12.5685
1 9.28243 10.6818 3.89511
1 1.39635 9.10569 10.6058
1 2.83028 2.10853 3.4019
1 10.9455 2.15074 10.1195
1 2.19169 10.1066 2.99413
1 9.48009 10.0667 9.56314
1 10.1288 3.04686 3.48997
1 2.42312 1.94284 9.5231
1 0.893225 0.109836 1.61941
1 11.9823 -0.0205922 8.06248
1 10.7807 10.8344 1.31807
1 2.17847 11.7674 8.12959
1 0.476747 10.723 13.1514
1 1.94229 12.2536 5.21095
1 0.65387 0.918367 11.9206
1 11.5713 0.554522 4.59234
96
 Atoms. Timestep: 12000
2 0.241318 7.61847 4.77715
2 4.55182 0.21881 12.3001
2 12.0142 5.96101 4.63162
2 6.69641 1.49337 11.3162
2 0.0787489 4.71226 7.71413
2 7.87063 12.478 0.706006
2 12.7133 8.12547 8.90883
2 4.79647 12.5419 1.49725
2 11.6941 8.14187 6.74981
2 4.84699 10.9526 0.178917
2 1.23314 4.64586 5.97492
2 8.64694 2.25765 13.2088
2 1.16947 8.20884 7.28929
2 8.85298 10.4427 12.9904
2 10.5635 4.76965 7.60714
2 5.13592 1.98055 -0.110978
2 10.1146 6.75697 6.07695
2 6.26132 10.7288 11.6613
2 1.99981 6.33275 4.86438
2 8.44997 3.62942 10.813
2 1.92362 6.59922 8.45241
2 6.98608 1.50698 1.41606
2 11.2294 6.3609 9.17776
2 6.68812 11.0725 2.00845
2 9.4313 7.9997 7.71722
2 1.63589 10.2798 4.0875
2 1.8216 4.56418 9.09248
2 9.41859 1.31866 2.72248
2 2.36073 9.52394 9.09677
2 9.00684 10.3138 2.40882
2 11.5975 3.42835 9.44765
2 3.49308 1.27998 2.22669
2 1.90372 3.87641 3.31414
2 9.5708 1.47325 10.9355
2 10.6568 8.45319 3.81089
2 3.49412 11.466 11.2914
2 10.0054 3.51787 5.29942
2 3.8521 2.07518 10.3981
2 2.81794 8.70579 5.29571
2 8.51228 10.234 9.88737
2 11.5267 10.687 12.5424
2 1.96636 0.292586 6.88491
2 12.3209 2.1583 -0.146569
2 10.833 12.1098 6.66229
2 10.4173 1.55125 0.525233
2 12.4003 12.4208 8.68764
2 0.687909 0.0845397 12.2048
2 0.00120529 12.1867 4.95716
2 11.207 2.60384 2.47181
2 10.1627 10.2921 7.98318
2 3.1287 11.4992 5.13947
2 1.65135 1.77577 9.44706
2 0.675267 2.05384 2.3742
2 2.43298 12.2674 9.23195
2 10.8327 10.3586 1.3783
2 9.85963 0.126002 9.03691
2 1.00616 10.9662 10.5899
2 2.08387 1.38442 4.64063
2 12.5698 1.97586 10.7087
2 11.2727 11.2785 3.5594
2 7.51331 8.64891 7.03464
2 10.7864 0.969209 4.28471
2 1.69782 2.93086 11.8534
2 3.99515 9.74478 2.59928
1 10.9943 7.52046 8.36603
1 5.10523 11.0682 1.8126
1 1.6922 5.01085 7.46597
1 8.61811 1.22063 1.11402
1 1.49235 8.01516 8.95535
1 8.0928 11.02 1.17564
1 11.7288 4.90023 8.77583
1 5.00971 1.11541 1.33305
1 0.970619 5.06516 4.4735
1 8.09481 2.16964 11.6847
1 11.4302 7.52209 4.99602
1 4.88958 11.1998 12.0143
1 9.21383 5.17934 6.06516
1 5.16924 1.61095 11.7854
1 1.81654 7.54326 5.62176
1 7.92541 10.4445 11.2826
1 10.4881 9.83105 3.13442
1 2.44988 10.8357 10.239
1 2.28306 2.29655 3.12732
1 11.0887 1.65795 9.75075
1 3.40545 10.0644 4.31509
1 8.73676 9.50485 8.3964
1 10.4414 2.38361 3.94842
1 2.46363 3.15426 10.2798
1 12.2554 1.92298 1.20997
1 11.011 11.7243 8.08064
1 10.3071 9.83024 13.3162
1 1.10795 0.286626 8.5889
1 0.0296644 11.4565 11.9504
1 1.71852 12.6104 5.28544
1 0.480629 1.78066 12.1835
1 11.1239 12.3242 5.02379
96
 Atoms. Timestep: 14000
2 0.244017 8.54892 6.2154
2 4.85448 0.87537 11.6869
2 0.0304197 6.25045 3.93751
2 6.67605 1.99865 10.4792
2 12.3445 4.70888 8.54451
2 7.37355 12.0456 1.60071
2 0.299106 8.31404 8.6462
2 4.963 0.648973 1.99837
2 10.6763 7.58509 5.75372
2 4.57717 11.3582 13.2954
2 1.48593 4.91864 6.38047
2 7.95874 0.867893 12.5982
2 2.52139 8.54111 7.14475
2 9.64434 10.1941 12.1094
2 9.83804 4.09887 6.88489
2 4.6408 3.07256 13.001
2 10.2898 5.24816 4.20758
2 6.34071 10.0589 12.0012
2 2.39729 6.77902 4.97496
2 6.36873 12.2379 10.7381
2 2.23703 6.41272 8.77291
2 6.64313 2.43514 1.77508
2 10.7251 6.72579 8.45458
2 6.21148 10.3881 1.47863
2 10.641 9.07541 8.32918
2 2.48391 10.7093 2.42998
2 2.54162 3.81624 8.79321
2 8.24973 1.38901 3.03887
2 3.06961 8.85423 9.30174
2 9.02308 10.1248 1.97846
2 10.1744 3.95962 9.50264
2 3.59623 2.98372 2.17697
2 2.12534 3.93471 4.24387
2 8.9506 2.12924 10.6818
2 10.2621 7.78831 3.24492
2 3.81224 10.9129 10.9967
2 9.1188 2.55042 4.94882
2 4.42771 2.62308 10.0874
2 1.65148 9.65972 4.84971
2 8.30613 9.472 10.3835
2 0.149209 10.1753 12.5163
2 1.4723 0.929425 6.75483
2 11.8638 2.05686 13.0962
2 10.8058 12.3135 6.46433
2 9.75444 1.58254 1.48891
2 12.493 12.2896 8.00582
2 0.814304 -0.150554 12.2318
2 12.9181 0.0333639 4.61078
2 10.931 1.54882 3.19277
2 12.3111 12.4948 1.69787
2 2.53002 12.2915 4.35207
2 2.21135 1.15877 9.18293
2 0.547764 2.09931 1.6655
2 2.69461 11.1826 8.40372
2 11.1252 8.9133 1.20662
2 10.3157 1.3826 8.79669
2 1.47599 10.5181 1.50367
2 2.55789 2.03986 3.93837
2 11.9547 2.05131 10.9434
2 10.73 10.006 3.96597
2 9.68789 11.5178 8.3754
2 9.66563 11.7937 4.7907
2 2.06487 2.81861 10.9972
2 4.50591 10.7694 3.28381
1 11.3681 7.86403 7.29609
1 5.06067 11.3122 1.90732
1 1.45951 4.88008 8.18201
1 7.73173 1.24175 1.35441
1 2.13758 7.91163 8.6696
1 7.81044 10.5917 1.03471
1 10.5281 4.99173 8.12458
1 4.92181 2.42953 1.51305
1 1.4868 5.46538 4.75845
1 7.8014 1.01674 10.9198
1 10.9988 6.77326 4.25096
1 5.15099 11.5547 11.7335
1 9.12389 4.3315 5.48026
1 5.22475 2.29923 11.535
1 1.81189 8.30521 5.68436
1 8.24033 9.8194 11.9265
1 10.4716 9.23251 2.57396
1 2.82961 10.4136 9.88784
1 1.98057 3.00358 2.67865
1 10.5839 2.4615 10.1209
1 2.68884 10.8146 4.15666
1 9.415 9.64601 9.23678
1 9.51126 1.26095 4.04879
1 2.86239 2.55903 9.67596
1 11.4567 1.47227 1.66349
1 10.7291 0.116187 8.1385
1 11.0385 9.50876 12.7246
1 1.80194 12.5404 7.99311
1 1.05579 11.5286 0.446295
1 1.56162 1.15194 5.12198
1 0.739808 1.6697 11.9268
1 11.5673 11.4125 5.10624
96
 Atoms. Timestep: 16000
2 12.6363 9.34118 3.89977
2 4.49913 12.6084 12.2001
2 12.0593 5.37631 4.49056
2 5.93451 1.78127 11.6081
2 0.159647 4.61977 8.85431
2 8.36036 12.531 4.44992
2 0.648197 7.82477 8.1275
2 5.79312 12.3176 1.81243
2 11.0414 7.75625 6.64787
2 5.26479 10.3655 -0.067183
2 1.1856 3.83291 6.07952
2 8.00559 0.419996 12.1395
2 1.60356 8.25341 5.9229
2 8.95429 10.0495 13.1907
2 10.1796 4.22219 7.6056
2 4.11451 2.02702 0.417173
2 9.57615 5.25232 5.09317
2 6.55357 10.279 11.7424
2 1.32211 6.34929 4.50027
2 6.01332 12.4177 10.7416
2 2.22532 6.00904 7.53708
2 7.3305 1.72988 1.22855
2 11.0523 6.07143 8.75804
2 7.31898 10.5451 2.33744
2 10.5909 8.32118 8.51774
2 2.25225 11.5519 1.51818
2 2.58687 3.59618 8.24374
2 6.91571 1.81145 3.73934
2 3.43377 8.38235 8.22294
2 8.80556 9.71828 3.95211
2 10.7261 3.35428 9.82873
2 4.9615 2.62491 2.82604
2 1.70974 4.15668 2.97522
2 8.7067 1.17222 9.72595
2 10.7934 8.16142 4.50553
2 4.24322 10.181 10.6027
2 8.61384 2.62147 5.2305
2 3.66325 1.95475 10.6099
2 2.06773 9.21269 3.14612
2 9.56934 10.3787 10.3847
2 8.64692 12.3387 1.17683
2 2.21133 0.673731 6.30098
2 10.7454 4.20246 1.34601
2 11.8812 0.644619 6.10519
2 9.65986 1.80505 0.594714
2 0.546558 11.8434 7.6239
2 0.0259707 0.314203 12.2055
2 0.325678 0.706246 4.46399
2 9.7686 2.26206 2.92498
2 11.9097 1.27315 1.15235
2 2.43939 12.0427 3.85615
2 2.57478 0.627958 8.96853
2 3.15681 2.52991 1.35671
2 2.6054 10.9051 8.30349
2 10.1385 10.3616 2.41774
2 11.4229 1.02494 8.42305
2 1.4589 12.5844 0.702094
2 2.47058 2.01951 4.11
2 11.4729 1.3145 10.549
2 11.0107 11.585 3.91602
2 10.6474 11.5298 8.62161
2 10.1543 1.43807 4.94828
2 1.01911 2.05681 10.0166
2 4.39673 10.7688 2.795
1 11.771 7.40765 8.17425
1 5.80925 10.7724 1.62787
1 1.51468 4.43332 7.69333
1 8.34056 0.944162 0.377536
1 2.02953 7.71169 7.44552
1 7.5833 11.0061 3.9934
1 11.1782 4.64533 8.99493
1 6.10235 1.2582 2.17109
1 0.916095 4.78821 4.57643
1 7.30832 1.01904 10.6687
1 10.8432 6.58404 5.30533
1 5.25485 11.2626 11.5267
1 9.20708 4.15933 6.00149
1 4.52973 1.4827 12.2009
1 1.46131 8.40545 4.27961
1 8.52337 10.0588 11.5057
1 10.7452 9.76172 3.87397
1 3.79351 10.028 9.02055
1 3.03527 3.05585 2.93375
1 10.4364 1.73118 9.5742
1 2.60566 10.6493 2.71181
1 10.4167 9.89702 9.16825
1 8.73719 1.45924 4.14175
1 2.75763 2.32613 9.35132
1 10.7335 2.45765 1.61342
1 11.8206 12.5379 7.50838
1 8.72945 10.4816 1.43
1 2.1337 12.3879 7.66163
1 12.4731 12.7148 0.415824
1 2.09066 0.675689 4.72666
1 0.168932 1.49681 11.1727
1 11.4905 0.481903 4.55465
96
 Atoms. Timestep: 18000
2 0.643626 6.77776 4.21171
2 5.42111 12.3928 11.5436
2 12.1372 7.02999 2.58674
2 6.36267 2.02542 11.3415
2 0.140912 4.09605 6.83019
2 7.61282 -0.0322817 5.48434
2 12.6529 7.49824 7.46154
2 5.87174 12.0618 2.4861
2 11.4003 6.83047 5.49764
2 4.8538 9.53825 2.29522
2 2.45099 5.06108 6.07008
2 8.11451 0.53985 12.2397
2 2.32334 8.00661 5.28742
2 8.48482 9.62655 -0.0531488
2 9.92286 3.78347 5.54166
2 5.07215 1.64289 0.435944
2 10.5854 5.57464 3.78623
2 7.08364 10.3639 10.8657
2 3.17295 6.03269 3.51579
2 6.88125 0.341922 10.0647
2 1.76409 6.49594 7.78264
2 6.93243 0.417986 0.78785
2 10.5164 5.79456 7.54489
2 5.87039 11.2362 4.66543
2 10.273 8.6771 8.08964
2 1.22175 11.2445 1.56229
2 1.95394 3.90075 9.24797
2 7.2144 1.48273 2.99027
2 2.4601 9.01435 8.34033
2 8.17723 10.2456 4.74921
2 10.5125 3.13795 8.08975
2 4.7312 1.56921 2.83532
2 3.41264 3.1985 4.67266
2 9.26936 2.28896 9.7742
2 10.4665 8.10441 3.97185
2 4.95512 11.4326 9.05173
2 8.55375 2.69052 4.21542
2 3.98245 1.9431 11.0225
2 2.27234 9.04941 2.78434
2 9.28126 9.23188 10.2733
2 9.35734 12.0129 1.29203
2 1.76551 -0.0635975 6.41635
2 10.3588 3.49983 2.7078
2 10.7999 0.313111 6.3869
2 9.0845 1.67523 1.44136
2 -0.0267731 12.0719 8.13457
2 0.731755 2.55782 0.117935
2 12.5408 0.344975 4.16466
2 10.7059 1.07388 2.88835
2 12.0019 2.52078 0.740275
2 1.73446 11.3913 4.2681
2 2.37945 1.23162 9.03916
2 2.13722 1.45448 2.5391
2 2.83423 11.4769 8.53116
2 9.56442 9.49798 2.82464
2 11.5124 1.1876 9.02505
2 1.11088 12.44 0.786995
2 2.20044 1.23397 4.89605
2 11.279 2.93286 11.3137
2 10.0841 11.4377 4.5411
2 11.057 11.5126 9.19686
2 9.383 0.870926 4.34966
2 1.7556 2.63629 11.4919
2 3.29754 11.3122 2.84305
1 10.9771 7.40761 7.14286
1 4.97287 10.9463 3.23271
1 1.50515 4.67936 7.69184
1 8.47792 0.76108 0.374912
1 1.72761 7.9381 6.9185
1 7.1107 11.192 5.69302
1 11.0784 4.21038 6.85112
1 6.03839 1.02626 2.05822
1 3.2922 4.83013 4.55955
1 7.82919 1.43063 10.9352
1 11.3108 6.90594 3.80295
1 6.17483 11.6541 10.1908
1 9.41186 4.15437 3.88472
1 5.13965 1.22584 12.2258
1 2.47592 7.4547 3.85175
1 8.4824 10.0018 11.7371
1 9.99595 9.7738 4.53303
1 3.76187 10.3132 8.52178
1 3.32555 1.84254 3.90549
1 10.7548 2.7073 9.73121
1 1.81602 10.5839 2.86113
1 10.4972 9.89643 9.36871
1 7.73785 1.29636 4.59977
1 2.68791 2.44754 10.1454
1 10.7575 2.25592 1.71182
1 11.3481 0.174915 7.98476
1 9.11516 10.2775 1.34556
1 1.6411 12.4696 8.05031
1 1.59466 1.0988 0.681744
1 0.953785 0.0796645 4.83351
1 0.322066 3.23856 12.0017
1 10.804 0.282719 4.57956
96
 Atoms. Timestep: 20000
2 11.9432 7.93492 4.70816
2 5.83017 11.9573 10.863
2 10.3882 7.09719 1.92242
2 6.69928 1.56987 10.5879
2 12.2364 4.72551 8.0384
2 6.68208 11.7144 5.22172
2 0.432343 7.94257 7.74862
2 6.06026 11.4779 1.41657
2 10.5132 6.34882 5.40944
2 7.16212 9.14937 1.67668
2 2.31243 5.21994 6.74685
2 8.25468 0.535691 12.6717
2 2.10996 8.71859 6.36286
2 10.1477 10.4378 12.1712
2 9.27589 5.16343 6.60168
2 5.1961 0.801333 0.123232
2 7.55864 4.03806 6.8481
2 7.56744 9.88247 10.7317
2 2.39122 6.70778 4.82565
2 7.53067 12.0475 9.63273
2 1.54281 6.63369 8.69028
2 7.2628 1.29258 1.43383
2 10.9232 6.90803 7.65142
2 5.83598 10.0119 3.35826
2 11.1027 9.46195 6.98066
2 1.61073 10.5005 0.897082
2 1.77384 3.98158 9.19988
2 6.49391 0.297397 3.3609
2 3.28528 8.9825 8.82169
2 7.46347 9.18563 4.22882
2 9.86846 3.92637 9.08971
2 4.69048 2.09021 2.31812
2 3.92847 3.56491 4.89986
2 9.41404 1.54719 10.664
2 9.27406 7.95899 3.63989
2 5.30356 10.5108 8.85404
2 7.48896 2.00078 6.01546
2 3.69371 2.11188 11.0412
2 1.94154 8.73694 3.18742
2 10.0368 9.78504 9.83921
2 10.0746 11.805 1.98867
2 1.69647 1.07947 6.03399
2 9.5714 3.42339 4.50818
2 10.597 0.972362 5.84755
2 9.66924 2.01547 2.61219
2 0.342735 0.989104 7.84721
2 0.734988 2.8811 0.694317
2 12.3401 11.6184 4.85331
2 11.1147 1.74742 4.05962
2 12.1733 3.05348 2.92894
2 2.05456 11.2416 3.25116
2 2.56616 2.02035 8.36882
2 2.35023 2.03863 2.54624
2 2.97164 11.9219 8.30098
2 12.3402 10.4638 0.360373
2 10.8734 1.58676 8.61433
2 0.754808 0.807404 3.18214
2 3.15226 0.799391 4.38659
2 11.6237 2.6301 11.1409
2 9.63842 9.88653 2.25863
2 10.4991 11.6485 7.56127
2 9.27686 12.362 4.03639
2 1.87275 3.17414 11.134
2 4.08073 9.84991 1.91637
1 11.638 7.8306 6.50026
1 5.69873 9.95785 1.77493
1 1.6654 5.09212 8.18568
1 8.83875 1.06522 1.51725
1 2.05927 8.1677 8.03513
1 6.26279 10.1473 5.06466
1 10.7075 5.18966 7.90507
1 5.62338 0.816878 1.8297
1 2.96645 4.99985 5.30353
1 8.168 0.845866 10.6808
1 10.5355 6.91987 3.67755
1 6.3749 10.7478 10.0449
1 8.87068 3.51004 6.03035
1 5.33839 0.98479 11.2915
1 1.38354 8.34955 4.65259
1 9.04132 9.77617 11.1167
1 8.22975 8.83639 2.69421
1 3.71026 10.6023 9.04567
1 3.81204 2.39732 3.6517
1 10.382 2.51985 9.81493
1 2.46517 10.0574 2.22235
1 10.2345 9.98785 8.23713
1 7.67975 0.509481 4.61423
1 2.69562 2.81041 9.84975
1 10.556 3.23912 3.13738
1 11.0566 0.803536 7.20021
1 10.7713 10.6621 1.03509
1 1.79907 0.527968 7.51664
1 0.852314 2.04161 2.04341
1 1.6317 0.176613 4.38582
1 0.533626 3.30092 11.9521
1 10.9374 0.204745 4.42837
96
 Atoms. Timestep: 22000
2 12.5247 8.07014 4.66447
2 5.21609 -0.0406765 12.1341
2 10.0156 5.96593 4.42817
2 6.25232 1.70752 10.3266
2 12.5046 3.82547 8.40075
2 7.26903 1.25869 5.55644
2 0.035417 7.48866 8.67786
2 5.48129 12.3713 1.87252
2 11.1399 7.38919 6.21911
2 7.4966 10.435 3.27529
2 1.53006 4.21992 6.36511
2 8.87941 0.574062 11.4987
2 1.73099 7.32393 6.64165
2 8.94486 10.7531 13.1452
2 11.0621 3.98242 6.32021
2 5.27739 1.47178 0.400176
2 11.2451 2.76327 4.569
2 6.88319 10.9853 11.8181
2 2.39077 6.46239 4.73736
2 5.79759 11.7764 10.1013
2 1.40991 5.93083 8.57848
2 7.31831 1.18927 0.870841
2 10.5779 5.16517 8.46085
2 6.2555 12.3633 4.02794
2 10.4941 8.42555 8.55478
2 3.04384 9.10132 1.44368
2 2.7303 3.35372 8.59996
2 7.48668 2.14756 3.09917
2 2.68742 8.46784 9.01757
2 5.8627 0.255404 7.44603
2 10.0141 2.81816 9.06494
2 4.71114 2.68856 2.26589
2 2.80491 3.13333 4.49908
2 8.11479 0.485873 9.28582
2 9.99359 9.12503 4.61006
2 4.37791 10.2571 10.4148
2 9.11423 3.62385 4.46119
2 3.6912 1.91749 10.829
2 2.89919 9.00507 4.26303
2 9.8517 10.8511 10.5004
2 9.29106 0.581983 0.654395
2 1.69176 11.8617 5.84329
2 10.7336 4.11903 2.78122
2 11.5785 0.360986 5.80281
2 9.92323 2.91772 -0.00969098
2 0.298947 11.7278 7.9522
2 1.24546 1.31302 12.2482
2 0.204875 0.384869 3.6791
2 10.5842 1.87241 2.71662
2 12.4369 2.66671 0.85572
2 2.41354 10.9964 3.1306
2 2.89657 0.21607 7.9094
2 2.16598 2.085 1.98279
2 2.05652 11.091 8.90826
2 11.5954 11.7917 2.13753
2 11.389 1.37791 7.89755
2 0.304176 12.3722 1.38294
2 2.96638 0.963328 3.48904
2 11.1019 1.3687 10.9534
2 9.41031 10.2995 2.22638
2 10.8863 10.9888 7.97067
2 9.72687 0.905939 4.69334
2 1.23789 1.74706 9.64394
2 4.57648 10.9915 3.45225
1 11.1819 6.94308 8.1431
1 5.97796 11.1483 2.92445
1 1.36194 4.21862 8.14278
1 8.54779 1.75442 12.7729
1 1.56867 7.40636 8.27083
1 5.7881 0.43528 5.78438
1 10.8848 3.38707 7.84189
1 6.15389 1.39277 1.89179
1 2.36044 4.54699 4.93708
1 6.51426 0.570628 9.03798
1 10.8519 7.63722 4.74001
1 5.34184 11.1723 11.5873
1 10.3895 4.41129 4.34329
1 5.12449 1.63255 11.5569
1 1.59947 7.88647 5.0099
1 8.51468 11.3822 11.5736
1 9.06116 10.1123 3.81461
1 3.15916 9.90705 9.16775
1 3.30664 2.48634 2.89372
1 9.72621 1.39068 10.0005
1 3.32676 9.70389 2.92794
1 10.6126 9.91384 9.42951
1 8.38704 2.01774 4.39609
1 2.90615 1.836 9.13586
1 10.8123 2.87698 1.50343
1 11.5276 12.4265 7.3601
1 9.89013 11.6273 1.27121
1 1.75582 11.6243 7.49981
1 1.09535 1.33119 0.716657
1 1.80557 12.038 4.18671