LAMMPS data file via write_data, version 2 Aug 2023, timestep = 1040000, units = metal

96 atoms
2 atom types
0 bonds
1 bond types

1.0183958244111357 11.571066844588753 xlo xhi
1.0183958244111357 11.571066844588753 ylo yhi
1.0695712254948884 12.152524439503251 zlo zhi

Masses

1 28.0855
2 15.9994

Atoms # full

79 1 1 1.1 5.477982782075836 2.636457987936481 2.1791956712087295 0 0 0
53 1 2 -0.55 4.720082769365614 3.1423692223192714 3.576376516343944 0 0 0
56 1 2 -0.55 5.120236765631886 11.5703611377387 2.4623855415290787 0 0 1
58 1 2 -0.55 7.11090604272306 2.7457299663487644 2.5401958920416234 -1 0 0
47 1 2 -0.55 8.650131936126582 3.356768963928074 1.2665343230391841 -1 -1 0
73 1 1 1.1 8.277950603770552 2.605302350235478 3.6951419296784116 -1 0 0
48 1 2 -0.55 9.125867584411 1.2324716340084887 3.5230193651895916 -1 0 0
84 1 1 1.1 2.120570444822764 5.576912159674921 2.750624235377095 1 0 1
52 1 2 -0.55 3.1369949300976576 5.074259109268008 1.4976190585353861 -1 0 0
13 1 2 -0.55 1.1941432613766727 4.65626171155688 1.7212921509971324 0 1 1
43 1 2 -0.55 5.384298056594688 3.949943151634268 1.1219090586521967 0 0 0
54 1 2 -0.55 6.95549682306834 5.126889799007499 2.414179486070104 0 2 -1
90 1 1 1.1 8.22863343220526 4.947126547547643 1.3681476947759939 0 -1 0
96 1 1 1.1 6.5881489678902865 5.881796988003821 3.8241236170303368 0 0 0
6 1 2 -0.55 9.515045654225073 3.712509211811235 3.755993158264096 -1 0 0
42 1 2 -0.55 9.218215118158199 5.6490113984970245 2.4619704354185163 -1 -1 0
49 1 2 -0.55 11.423040526397653 6.122680946946399 3.795062774381145 0 0 0
23 1 2 -0.55 2.49757335608487 7.083109333098015 2.04502388142144 2 0 1
74 1 1 1.1 2.775769744152208 8.690645104861405 2.3232496662428144 1 -1 1
57 1 2 -0.55 2.134641222541559 8.543714343892326 3.8163506344593565 1 1 1
82 1 1 1.1 5.517908019511997 8.197430496218928 1.370753609123064 0 0 1
59 1 2 -0.55 5.259173698238743 6.594403386861943 1.320224394417477 0 -2 0
27 1 2 -0.55 6.993906731187761 8.375714348102825 2.0530038343188277 0 0 0
68 1 1 1.1 7.790341716236135 8.79634697295355 3.4619919069910545 0 0 0
40 1 2 -0.55 1.9691697381874032 9.915583879555506 1.5606096291181408 0 1 1
29 1 2 -0.55 4.432860588237816 9.01455240065939 2.374278465942668 0 0 1
86 1 1 1.1 4.982076893425971 10.239297693532752 3.4339118233333843 0 0 1
35 1 2 -0.55 6.6169043080819865 9.939928103752155 3.5403561505210344 0 -1 1
3 1 2 -0.55 11.504236797032856 10.617287254863339 3.159579664578737 -2 -1 1
64 1 2 -0.55 9.157003730363062 9.38600476383425 2.729060327242193 0 0 0
78 1 1 1.1 9.988255332382355 10.788920071359072 2.577991259029938 -1 -1 1
24 1 2 -0.55 10.327311183506648 11.451159820781744 12.132877521080351 0 0 -1
19 1 2 -0.55 2.302257169467862 2.14921699006254 4.3928066583421845 0 0 0
80 1 1 1.1 3.4215504083878865 3.3274755601884136 4.585494628257971 0 0 0
32 1 2 -0.55 4.0526636255251685 3.4247062068348035 6.220549902148234 -1 0 0
8 1 2 -0.55 7.564640848832221 2.4981336576168385 5.173810275583941 0 0 -1
17 1 2 -0.55 2.85108067290027 4.781591543032482 4.024638929360409 0 1 1
51 1 2 -0.55 5.565312417628299 5.295226534334521 4.977031060866501 0 0 0
92 1 1 1.1 5.177232989599942 4.714222294054322 6.483487476852157 -1 0 0
77 1 1 1.1 9.942602694050723 5.303980677849467 3.8803856809045665 0 0 0
36 1 2 -0.55 9.297224345660148 5.662353793170141 5.326644681504305 1 1 1
88 1 1 1.1 1.140663750123599 7.572497476931102 4.644544910901529 0 -1 0
10 1 2 -0.55 7.415369839494476 7.2742398342855195 4.04418900157912 0 0 0
66 1 1 1.1 9.184819603450372 8.45589554522471 6.259970619306076 0 0 0
41 1 2 -0.55 10.722108372584945 8.203821656414629 5.758206309152967 -1 0 0
61 1 2 -0.55 3.469940794175024 10.34852527024723 4.152822772283596 -1 0 0
89 1 1 1.1 2.0190610162906077 11.084710775209516 4.289998154019314 0 0 0
28 1 2 -0.55 1.4423541382022684 10.558470794776856 5.713315595995452 0 -1 0
50 1 2 -0.55 5.324936126912415 9.855016643567168 5.072843852467355 0 0 0
33 1 2 -0.55 8.290890741808353 9.066684815317636 5.038382756057464 -1 -1 0
4 1 2 -0.55 2.4769360739890227 1.3382769925020404 7.493567409370314 1 0 1
71 1 1 1.1 3.8602250034366037 2.2250389218140803 7.4637560871142234 1 0 0
22 1 2 -0.55 4.096614005097616 2.5488863674647835 9.082451985514117 0 -1 -1
34 1 2 -0.55 4.936625660318665 1.046262302325565 7.050455177838638 1 1 0
70 1 1 1.1 7.655614489802032 2.8203628595424415 6.7822586437962435 0 1 0
38 1 2 -0.55 7.8634835806766645 1.4800929132602487 7.714122196286006 -1 0 0
46 1 2 -0.55 4.609305773478278 5.910942682556252 7.456187254705742 -1 -1 0
63 1 2 -0.55 8.892614272883439 3.85707568512004 6.943032760410053 0 0 0
45 1 2 -0.55 6.382034163886886 3.8086184773588525 7.119343318655871 -1 0 -1
14 1 2 -0.55 8.39405024108555 5.870542011704296 8.334367503462218 0 0 -2
72 1 1 1.1 9.292831919357791 5.452147758240432 6.981321096269299 0 0 -1
39 1 2 -0.55 10.739611038375745 5.628381286987399 7.740287182813922 0 0 -1
62 1 2 -0.55 2.378819128152342 6.844205975466181 8.71659536238713 0 -2 0
94 1 1 1.1 3.9889165004887785 6.489012887889175 8.86180411162428 -1 -1 0
7 1 2 -0.55 4.702634909408843 7.92966661226168 9.161224042698944 -1 0 0
16 1 2 -0.55 8.68085881027028 6.991324217404156 6.703455024342959 0 -1 -1
69 1 1 1.1 11.391461927450177 6.4018808801489655 9.031233693291238 -1 1 0
21 1 2 -0.55 10.070720477977954 7.4572331515388806 9.33325621300522 -1 1 0
65 1 1 1.1 1.9760391190696542 10.346140867697041 7.229474836145629 1 0 1
15 1 2 -0.55 3.4245858558923175 9.630183717365181 6.963077240415766 1 0 0
18 1 2 -0.55 1.1170619347258266 9.534798907918134 8.344777848356507 1 0 0
85 1 1 1.1 4.987029667003011 10.005734255782759 6.6742575054377555 0 0 0
9 1 2 -0.55 5.885411706928497 9.164297248574957 7.763563302277778 0 0 0
76 1 1 1.1 7.893033381377127 11.317657179234288 9.195860063346299 0 0 0
20 1 2 -0.55 9.430071814956552 9.280521877790669 7.641452457911534 0 -1 1
91 1 1 1.1 10.248371788048274 9.15507471165176 9.098221416719698 -1 0 -1
95 1 1 1.1 3.5196349460814207 2.298817413642886 10.63164599538006 0 0 0
25 1 2 -0.55 2.3545681251478703 1.1248189773410744 10.684904289676275 1 1 0
12 1 2 -0.55 2.6763554970881356 3.6637071522366647 10.931221249331376 2 -1 -1
31 1 2 -0.55 4.7010614997864195 2.113412308229087 11.804804289471404 1 1 0
55 1 2 -0.55 8.283817360502072 1.8074903848152652 10.387778397445748 1 0 -1
93 1 1 1.1 9.44068917978841 2.2051679034287073 11.471441507468072 -1 1 0
1 1 2 -0.55 10.652660968267323 3.099056082133555 10.864036905716299 -1 0 0
83 1 1 1.1 1.1862359421385218 4.234796460064195 11.240726070465318 1 0 -1
75 1 1 1.1 4.53486984545882 5.277060673858815 11.747071616703229 0 0 0
5 1 2 -0.55 4.276945115892586 5.466646079735825 10.129620305133468 -1 0 0
30 1 2 -0.55 8.173489114435775 5.760099679600385 11.010995899169176 1 0 -1
11 1 2 -0.55 11.394543185113942 5.5825279806231 10.422366131877657 -1 0 -1
87 1 1 1.1 6.08499975367287 8.816687748785622 9.403684289586083 1 -1 -1
2 1 2 -0.55 5.48851715940138 8.864618264355352 10.965139184004144 1 -1 1
26 1 2 -0.55 7.520059653562855 8.04734743224519 9.66788522090164 0 0 -1
81 1 1 1.1 8.510038830121012 6.754624260325353 9.714594172993959 0 0 -1
67 1 1 1.1 1.2030838032455968 10.732746836999645 11.41409978161172 0 0 0
60 1 2 -0.55 6.567208159345635 10.40818594501362 9.431131066806715 0 0 -1
37 1 2 -0.55 9.10219061052014 10.259919459641313 9.575964252029642 0 0 1
44 1 2 -0.55 11.183455123101481 9.563744819110223 10.421672352157533 0 0 0

Velocities

79 -0.5981636740848226 0.1199142233027072 1.0731897669813357
53 -0.217130497561131 -0.9104129480172062 -0.002993816913735586
56 -0.7364111963859582 -0.6417927796775694 0.40982981301390614
58 0.7145901564614582 -0.05231343280840964 -1.2178549391211575
47 -0.36962423639969644 -1.7618308213708587 0.19802214874420587
73 -0.028435301248470764 -0.1662626565552187 0.3489473902679061
48 0.7213186822724756 -0.8349531391022597 0.2828045149585167
84 0.0048602387090751304 0.04347499782231858 -0.986103075315993
52 -0.30457897032513503 -0.8961242860572115 -0.022034092843788124
13 0.16624215118752989 -0.32709834387431963 -0.1640652596575061
43 -0.6558051014837118 -0.5864811772462285 -0.12325833006654077
54 -1.0624068728768459 1.5813993259662085 1.313087103168512
90 -0.750904958778046 -0.8042751339368901 -0.361460405542743
96 -0.084574107235357 -0.1477964910595963 -0.18246812357625386
6 -0.5667041313258667 -0.12489518242971612 -1.0560008570048776
42 1.0244658529122432 -0.35118700453304413 0.1622444410443235
49 -0.9383292026344678 0.21968992191382253 -0.08606628927466342
23 -1.2223534097522821 -0.7949171294844327 0.15089122159299384
74 -0.2597901266869787 0.3962336568326185 0.09677797136100151
57 0.37506023696435836 0.3613483076281505 0.14040384450202764
82 -1.1190581515651616 -0.8180542167190643 -0.31053205505355747
59 0.6677810850952047 0.051218258690617094 -0.7502429289882823
27 0.29579558107007475 0.3507564236065095 1.092056963580058
68 -0.3928153325588898 0.10445412550840551 0.5844469416801511
40 -0.8619532842984159 -0.2171470526727209 0.005697892115933748
29 0.8803458247240664 0.9076513254629744 1.0439926648582947
86 0.3555751586482272 -0.8504696933716369 0.1778961298175738
35 1.1841093159572347 0.7185857602321167 -0.8456745324831126
3 0.394734126120519 -0.5762320377146973 -0.19340528632193177
64 -0.31400112335282043 0.9894264003466547 0.6515290065874082
78 0.22049327768776625 -0.21510501500834112 -0.49079189621410535
24 1.8432324877210469 0.5655874256603555 0.036230493457572475
19 0.2112585235753727 -0.14864792188470927 0.4462326037941083
80 0.34201514465781274 0.5803183851466543 0.1533681606210702
32 0.48900767610939483 -0.11980782555679065 0.27998848664756726
8 0.5091033740595307 -0.08501797205785432 0.672130731948842
17 -0.7679390400030052 0.8337695589946218 0.3231001124292403
51 0.5171038583799449 1.3308891769848412 0.32664219691931734
92 -0.8830910803336358 0.22622406516403004 -0.4529779810186698
77 -0.09978676876341941 0.7827491761445058 0.8555038320707146
36 0.7392166168631908 2.0805799222848558 0.22045154560950858
88 0.25204453846397396 0.37337860153611646 0.2513496101657568
10 1.288320406449829 0.15434293722955383 -0.19573153175291902
66 -0.6895391156433861 0.3568392126652776 0.1072302618320354
41 0.42741565182491387 -0.05882672065299817 -0.648458557669491
61 -1.1581362860702133 0.28885139908995777 0.18646138961383826
89 0.18271977734755873 0.3723213515862942 -0.7276497215796142
28 -1.078363297433113 -0.22850870758490596 -0.023699740772850676
50 -0.14709436514307836 0.3461629301798752 0.5152153875940557
33 0.7660107477967216 -0.9522272263610052 0.06859398405927947
4 -0.431459423265263 0.05327211230481562 -0.1834722074998955
71 -0.021631317393902276 0.33020864823740514 -0.5801621453826489
22 0.5900353289372215 -0.6428237653584207 -0.7210498975569859
34 0.9512282772765269 -0.08350296492875314 -0.31238496723059606
70 0.1747379559262049 -0.16699227913817086 -0.4952796002880363
38 -0.42232765557343005 0.5302584036244492 -0.11307260083038977
46 -0.1201737383337714 -0.35869143293434724 0.5299617394978545
63 -0.019720566164815167 -0.18400958604832637 -0.3484892094974391
45 1.4484000463118152 -0.8662577536738764 1.4800386883893355
14 -0.3938339761045122 0.5377329224756113 0.20594400919667083
72 -0.5692581668293982 0.8884570406983471 0.09662991339004054
39 -0.2060621014166678 0.2021913885687946 -0.4216324679158001
62 -0.10528007883111572 0.9381989772046594 -0.9214178502826581
94 -0.10785756334409957 -0.6386292207596628 -0.32154275065986
7 -1.0211837815048181 -1.037152918586895 -1.1093211236646656
16 -0.7052546953536326 0.15142045071161805 -0.5269894495841186
69 0.3729420530760029 0.4440199638965187 0.08089290280435261
21 -0.6370996396925336 0.5773484272559497 -0.8080818441150587
65 0.6832243337724601 -1.0630947349194333 0.4349364804415556
15 -1.1425525028990438 0.4340730828430555 0.8111829596353365
18 0.7385045112438774 0.5532105346893106 0.28399327789539247
85 0.2727860593688958 -0.026328459768800515 0.009722291002026165
9 0.3326391342446321 -0.9538312582158949 0.04988602077062803
76 0.016260761492856643 -0.7340163902587707 -0.36867309528986664
20 -0.38345572179229603 -0.04711082298455128 0.07660899410550989
91 0.3788690004831539 0.5914790204223856 -0.10556841221625143
95 -0.4723369769035691 0.45577172528816357 0.9703984318634193
25 0.503406909264254 0.4503141807938109 -0.10332174095247179
12 0.970692116377397 -1.1177581776678656 1.3495896302605643
31 0.14364572346766413 0.04708866430242451 -1.3264591006622022
55 -0.5760497600650315 0.6523059631247013 0.26317603629566283
93 0.009701086992272259 -0.07978382649710904 -0.7536259922365776
1 0.036743608294507485 -1.143524664869397 -0.11635214684898222
83 0.29514008755070387 0.08954262319578284 0.5641611882033832
75 0.2030063326002463 -0.43821540594998976 0.35610511653148114
5 1.956736984064376 0.6428465854344877 -0.6876633699829947
30 0.7265132036454481 1.2938233757991342 -0.2768165147128859
11 0.517674317403986 -0.2251088913220997 0.8179496615061812
87 0.6198889288949919 -1.2184247788269151 0.10556752534116048
2 -1.0340862231048553 -0.3881474417598142 0.014294156246419366
26 0.28269851223857956 -0.040705662933808257 -0.35762831890901536
81 -0.20214020264128554 0.35079021213647626 0.015155619022042675
67 -0.8331840041443073 0.24890240085202858 -0.23483061829358454
60 0.18873689944489333 0.2712155626509478 -0.20838128112727805
37 -0.786108197446472 0.29001697821980404 -0.13392652605523966
44 0.5719988083791098 -0.5735714502242174 -0.24537530365358595
