96
 Atoms. Timestep: 0
2 0 7.95642 4.74695
2 4.63304 0 11.358
2 0 4.63304 4.74695
2 7.95642 0 11.358
2 0 4.63304 8.47514
2 7.95642 0 1.8641
2 0 7.95642 8.47514
2 4.63304 0 1.8641
2 10.7421 8.43088 6.61105
2 4.15858 10.7421 0
2 1.84736 4.15858 6.61105
2 8.43088 1.84736 0
2 1.84736 8.43088 6.61105
2 8.43088 10.7421 0
2 10.7421 4.15858 6.61105
2 4.15858 1.84736 0
2 10.5201 6.29473 5.04003
2 6.29473 10.5201 11.6511
2 2.06934 6.29473 5.04003
2 6.29473 2.06934 11.6511
2 2.06934 6.29473 8.18207
2 6.29473 2.06934 1.57102
2 10.5201 6.29473 8.18207
2 6.29473 10.5201 1.57102
2 10.1594 8.65935 9.20274
2 3.93011 10.1594 2.59169
2 2.43004 3.93011 9.20274
2 8.65935 2.43004 2.59169
2 2.43004 8.65935 9.20274
2 8.65935 10.1594 2.59169
2 10.1594 3.93011 9.20274
2 3.93011 2.43004 2.59169
2 2.43004 3.93011 4.01936
2 8.65935 2.43004 10.6304
2 10.1594 8.65935 4.01936
2 3.93011 10.1594 10.6304
2 10.1594 3.93011 4.01936
2 3.93011 2.43004 10.6304
2 2.43004 8.65935 4.01936
2 8.65935 10.1594 10.6304
2 0 10.703 0
2 1.88643 0 6.61105
2 0 1.88643 0
2 10.703 0 6.61105
2 0 0 1.872
2 0 0 8.48305
2 0 0 11.3501
2 0 0 4.73905
2 11.2706 2.31295 2.18973
2 10.2765 11.2706 8.80078
2 1.31887 10.2765 2.18973
2 2.31295 1.31887 8.80078
2 1.31887 2.31295 2.18973
2 2.31295 11.2706 8.80078
2 11.2706 10.2765 2.18973
2 10.2765 1.31887 8.80078
2 1.31887 10.2765 11.0324
2 2.31295 1.31887 4.42131
2 11.2706 2.31295 11.0324
2 10.2765 11.2706 4.42131
2 11.2706 10.2765 11.0324
2 10.2765 1.31887 4.42131
2 1.31887 2.31295 11.0324
2 2.31295 11.2706 4.42131
1 11.0086 7.83654 8.10972
1 4.75292 11.0086 1.49867
1 1.5809 4.75292 8.10972
1 7.83654 1.5809 1.49867
1 1.5809 7.83654 8.10972
1 7.83654 11.0086 1.49867
1 11.0086 4.75292 8.10972
1 4.75292 1.5809 1.49867
1 1.5809 4.75292 5.11238
1 7.83654 1.5809 11.7234
1 11.0086 7.83654 5.11238
1 4.75292 11.0086 11.7234
1 11.0086 4.75292 5.11238
1 4.75292 1.5809 11.7234
1 1.5809 7.83654 5.11238
1 7.83654 11.0086 11.7234
1 10.1088 10.1088 3.30552
1 2.48067 10.1088 9.91657
1 2.48067 2.48067 3.30552
1 10.1088 2.48067 9.91657
1 2.48067 10.1088 3.30552
1 10.1088 10.1088 9.91657
1 10.1088 2.48067 3.30552
1 2.48067 2.48067 9.91657
1 0 1.60471 1.57853
1 10.9848 0 8.18958
1 0 10.9848 1.57853
1 1.60471 0 8.18958
1 0 10.9848 11.6436
1 1.60471 0 5.03252
1 0 1.60471 11.6436
1 10.9848 0 5.03252
96
 Atoms. Timestep: 2000
2 0.0888273 7.99903 4.66196
2 4.56712 -0.148688 12.2809
2 -0.397823 4.1019 5.63508
2 8.42598 -0.113872 12.0959
2 12.5446 4.39954 8.30758
2 7.71044 12.7473 2.33365
2 12.6918 8.81592 7.79537
2 4.66841 12.8125 1.83915
2 11.8202 7.63734 6.24539
2 4.4353 10.8832 -0.256162
2 1.55511 5.28315 6.65111
2 7.6309 1.68436 0.203879
2 1.63391 7.85907 6.33364
2 8.31477 10.9011 0.156699
2 11.0861 4.36249 6.62861
2 4.16264 1.85875 -0.156638
2 11.3538 6.17436 4.48844
2 6.36674 11.3749 12.1443
2 1.08207 6.16631 4.43958
2 6.29587 1.41841 11.8117
2 1.16115 6.70276 8.22207
2 5.91069 1.74301 2.19646
2 10.3997 6.59122 7.96804
2 6.33297 10.844 1.46081
2 10.7792 8.99038 9.40421
2 3.16603 10.1442 1.67572
2 1.00856 4.10398 9.70211
2 8.80765 2.22367 2.47809
2 1.47381 9.67249 8.74766
2 8.80833 10.0811 2.81721
2 10.5221 3.58114 9.4242
2 3.06051 1.86328 2.31695
2 1.30699 2.54653 4.01424
2 8.89274 2.06715 11.4224
2 11.7174 8.97688 3.79117
2 3.51797 10.8351 10.8622
2 10.8659 3.28516 4.03597
2 3.1866 2.47276 11.6801
2 2.60663 8.30401 3.69095
2 9.0027 10.903 11.5231
2 -0.389828 10.3874 -0.432502
2 2.23149 12.8907 6.35473
2 12.5133 1.45962 13.5245
2 11.228 13.0506 6.65317
2 12.2019 12.627 0.708078
2 0.331456 0.611926 7.89113
2 0.295434 12.8908 12.3147
2 0.0253622 0.0122978 4.38582
2 11.6823 1.09998 2.44558
2 11.6751 12.1226 9.21713
2 0.873424 10.601 2.28349
2 2.41645 1.51661 8.88852
2 0.888915 1.26344 1.12832
2 2.22406 12.1554 8.98136
2 11.2946 10.3323 1.49564
2 10.6859 1.60186 8.73101
2 1.30688 10.6989 11.2488
2 2.18008 0.599678 3.67989
2 11.6382 1.80086 11.0805
2 10.862 11.2822 4.18478
2 12.5954 11.4005 10.3117
2 10.5068 0.964563 5.08255
2 1.40487 1.64511 10.8492
2 2.12197 10.8642 4.26135
1 11.2522 8.09799 7.88335
1 4.6653 11.1446 1.19666
1 0.77839 5.21584 8.29682
1 7.39443 1.27593 1.78747
1 0.903932 8.33253 7.77614
1 7.92989 11.1168 1.75702
1 10.812 4.59884 8.1668
1 4.41692 1.1891 1.44839
1 1.3786 4.24964 5.06125
1 7.7611 1.25845 12.3356
1 11.7853 7.56227 4.72836
1 4.66634 11.3371 11.949
1 11.3719 4.58928 4.83092
1 4.56589 1.52285 12.2211
1 1.63236 7.68043 4.86532
1 8.06448 11.7635 12.8811
1 10.3445 9.9886 3.09535
1 2.18355 10.6918 9.80286
1 1.50525 1.67766 2.71813
1 9.9534 2.38782 9.99059
1 2.6447 9.74377 3.09691
1 10.0201 10.8609 10.136
1 10.4041 2.21741 3.20138
1 2.11715 2.93681 9.9214
1 12.5864 0.826365 1.04781
1 11.7082 0.285604 8.18857
1 12.6645 11.0271 1.33988
1 2.01096 0.302029 8.00595
1 0.0454107 11.1766 11.8637
1 1.63151 12.3669 4.80412
1 -0.441992 1.31882 11.8012
1 11.7088 -0.492393 4.80637
96
 Atoms. Timestep: 4000
2 12.9017 8.46801 5.44288
2 4.34326 0.11639 11.9762
2 -0.406051 4.45432 4.67324
2 8.19248 -0.311968 11.7856
2 10.416 8.23374 7.13021
2 7.45567 12.8432 2.04959
2 0.133371 7.85224 7.97315
2 4.02231 -0.562341 1.36655
2 11.9644 10.1151 10.5915
2 4.84119 10.974 13.4881
2 1.91929 4.47595 6.44361
2 7.36694 2.00028 -0.318164
2 2.16054 8.44603 7.19923
2 8.40427 10.9032 0.296132
2 13.0295 4.78045 8.57629
2 4.59168 1.33259 13.5966
2 10.7651 6.61917 4.17104
2 6.88829 10.947 12.0149
2 2.12425 6.33789 5.23855
2 5.9089 2.18824 10.7685
2 2.21415 6.02646 8.6838
2 6.07547 1.23346 1.64051
2 11.2627 6.9035 9.78298
2 6.03802 10.8146 1.64488
2 10.2812 9.01308 9.02861
2 3.86372 10.2703 2.30012
2 2.22507 3.38761 8.60492
2 8.87278 2.54126 1.65719
2 2.58495 8.9128 9.52591
2 8.9218 10.3938 2.39799
2 10.7196 3.35794 9.63267
2 3.64173 2.06075 2.49542
2 2.16887 3.42252 4.3977
2 8.76378 2.26574 11.1017
2 10.7247 9.46956 4.23733
2 3.90124 10.5053 10.9366
2 11.3647 3.97924 2.26146
2 3.31348 2.32806 10.8534
2 1.87955 8.56877 3.87512
2 9.8571 11.1857 11.5285
2 13.0044 10.4658 13.2477
2 1.36614 -0.0589443 6.40218
2 12.7915 0.859515 13.3667
2 11.3322 0.0137401 6.30062
2 0.23807 12.276 1.6716
2 12.515 -0.229374 8.34259
2 0.704083 12.3466 11.7498
2 12.6196 -0.0540131 4.4319
2 11.9452 1.66769 1.54995
2 10.4177 11.2109 8.80483
2 1.13627 10.3767 2.38808
2 1.78005 1.25715 8.31044
2 1.00359 1.83459 1.71834
2 3.76199 10.5001 8.76607
2 12.079 10.5849 2.15565
2 10.3543 1.1625 9.04714
2 1.69414 10.1915 11.3071
2 1.9857 0.989468 4.46737
2 11.6843 1.58749 11.0182
2 11.0747 11.5533 4.57657
2 1.64577 11.6306 9.31822
2 10.2543 1.33929 3.77224
2 1.40088 0.838765 10.3301
2 1.92642 10.9983 4.70713
1 11.5237 7.90067 8.5355
1 4.54028 11.1159 1.17422
1 1.32611 4.67994 8.03737
1 7.6759 1.33479 1.37655
1 1.74729 7.43998 8.63288
1 7.67622 11.2607 1.81447
1 11.4842 5.11074 9.36957
1 4.42018 1.24885 1.47296
1 1.30665 4.87502 5.07167
1 7.37747 1.44905 11.8805
1 11.1512 8.00908 4.78905
1 5.03162 11.502 11.9749
1 11.6807 4.83142 3.57493
1 4.63932 1.80541 11.7293
1 1.46057 7.88998 5.43843
1 8.25986 11.3708 12.5775
1 10.4425 10.6394 3.17106
1 2.50805 10.4826 9.82657
1 1.94276 2.11986 3.24786
1 10.192 1.89599 10.4395
1 2.57488 9.95234 3.16061
1 10.3193 10.1535 10.3869
1 10.4968 2.52925 2.30257
1 2.29981 1.95636 9.68975
1 0.295019 0.664759 0.973259
1 10.7818 12.6813 8.13296
1 -0.114759 10.8479 1.12045
1 1.00257 -0.40562 8.01817
1 0.0801174 10.5894 11.5046
1 1.04041 12.496 4.88044
1 -0.00286285 0.772593 11.4516
1 10.8903 0.167134 4.72174
96
 Atoms. Timestep: 6000
2 0.0773274 7.34239 6.71392
2 4.49653 0.260959 11.0442
2 0.323146 6.11645 3.7403
2 8.28081 0.575515 12.6827
2 10.7396 7.51876 7.39933
2 7.41804 0.413291 2.01716
2 12.7137 7.55506 9.51227
2 4.44401 -0.0531059 1.02908
2 12.2223 10.1816 10.5841
2 4.78364 11.3357 12.8343
2 0.259999 3.63884 5.84434
2 8.06528 2.73592 0.0902398
2 2.2122 7.20711 7.24973
2 8.29206 11.3099 0.579386
2 0.59994 5.48559 9.25715
2 4.24197 2.02778 12.933
2 11.4274 6.86498 4.89351
2 6.81143 11.8773 11.2961
2 2.05035 5.81467 5.01007
2 6.14693 2.13666 12.0613
2 11.6081 2.13582 7.51053
2 6.13554 2.27567 1.79009
2 11.1192 5.81493 9.49319
2 6.01248 11.0027 1.7317
2 10.9335 9.07095 8.85932
2 3.56114 10.4334 2.23483
2 1.36529 2.73548 8.03367
2 9.11329 2.32481 2.2122
2 1.71499 8.57201 9.63219
2 8.84878 10.7029 2.79153
2 10.9041 3.60335 10.5791
2 3.3651 2.6135 2.23663
2 1.48638 3.52907 3.91913
2 8.67029 2.4994 10.7091
2 10.9161 9.50595 5.22731
2 4.20204 9.84054 10.7074
2 11.0127 4.57468 2.72577
2 3.61748 2.3812 10.0725
2 1.89498 8.80046 4.76897
2 9.73147 11.0311 11.422
2 0.528848 9.82335 13.1934
2 1.82072 11.8087 6.36516
2 12.6426 1.44632 12.8138
2 10.9745 0.313218 6.73328
2 12.2951 11.8656 0.375478
2 0.527609 12.2823 8.07336
2 0.511901 12.3742 11.9811
2 12.7346 1.31855 5.62828
2 11.1552 1.72007 1.52204
2 11.3999 11.3365 8.255
2 1.46694 9.93848 2.02339
2 2.55866 0.63395 8.93029
2 0.594828 1.90093 1.53828
2 3.98618 7.89382 9.81324
2 11.3793 10.3473 1.9373
2 10.0334 1.44189 8.76731
2 1.91319 10.4871 10.5994
2 1.33404 1.45187 4.05771
2 11.9143 0.534827 10.2102
2 10.9327 11.9228 4.26073
2 2.54861 10.6902 8.56619
2 10.6463 2.00723 4.18791
2 1.07608 2.28165 10.2633
2 2.31443 11.6327 4.13933
1 11.1073 7.41723 9.16085
1 4.46337 11.1612 1.1887
1 0.215805 2.53519 6.82252
1 7.6064 1.9034 1.53809
1 1.34889 7.11278 8.95955
1 7.50415 11.5484 2.21513
1 12.2033 4.63022 10.1008
1 4.5937 1.90116 1.4713
1 0.923641 4.71151 4.66455
1 7.77171 2.01135 12.2017
1 11.3728 8.15119 6.02743
1 5.07193 11.5034 11.1678
1 11.4591 6.2888 3.29213
1 4.73376 1.8664 11.3605
1 1.82943 7.2967 5.71029
1 8.23457 11.6841 12.2533
1 10.1322 10.3472 3.71147
1 3.03297 9.52782 9.8454
1 1.97505 2.20217 2.69021
1 9.83304 2.90753 9.64154
1 2.51055 9.88408 3.50263
1 10.7213 10.4113 9.64846
1 10.7036 2.8093 2.68974
1 2.3192 2.01758 9.19686
1 12.3441 1.10773 0.744915
1 11.5199 0.158988 8.40688
1 -0.0981508 10.1581 1.32468
1 2.09137 12.0697 8.00798
1 0.74095 10.5657 11.7272
1 1.37829 0.0159313 5.13332
1 0.304207 1.24216 11.207
1 10.7922 0.763309 5.32281
96
 Atoms. Timestep: 8000
2 0.56165 8.48602 5.11123
2 5.12587 12.7942 12.0696
2 1.21912 5.0831 4.1044
2 7.01454 12.1059 11.5323
2 10.7605 7.94279 6.14174
2 8.60439 12.7631 1.33745
2 12.5277 8.47644 8.07755
2 5.06689 12.1363 2.56849
2 10.8948 9.91565 10.5879
2 4.58482 10.7829 0.327918
2 0.974779 4.98904 6.5213
2 9.57984 10.4791 12.4796
2 1.75569 7.5614 7.17387
2 7.80351 9.91131 0.214723
2 1.18418 5.99872 9.05093
2 6.4383 1.81996 -0.192512
2 11.5791 6.20623 3.75021
2 6.0316 10.3441 12.0026
2 2.69187 6.54719 4.93188
2 6.39375 1.58249 10.8946
2 12.427 3.58889 7.99303
2 4.46315 1.22748 0.304219
2 10.3813 6.47627 8.71703
2 6.76981 10.7421 2.09506
2 10.0877 9.13025 8.22479
2 3.6825 9.88807 2.38629
2 1.74893 3.21097 9.39444
2 8.68527 2.37495 1.94386
2 1.25352 8.61735 10.2871
2 9.56819 10.3633 1.93819
2 10.3906 3.86335 10.0392
2 3.85211 1.61595 2.89008
2 2.95962 3.59294 5.04878
2 9.06007 1.46568 10.7704
2 10.9436 8.65356 3.74491
2 2.64144 10.7121 11.8642
2 11.024 3.9319 4.12005
2 4.04128 2.10742 10.933
2 3.10793 9.38041 5.05824
2 8.17497 10.3194 10.2897
2 12.3294 10.5455 -0.0114721
2 1.91622 11.6375 7.12246
2 -0.137393 2.74095 -0.0651706
2 10.6333 11.9806 6.79769
2 -0.0468894 0.303527 1.78259
2 0.274383 12.3104 8.85091
2 9.87479 8.53867 11.9734
2 12.4469 -0.0152986 5.80949
2 11.4633 2.32459 2.29506
2 10.216 11.4776 9.59659
2 1.76463 10.8688 2.3186
2 2.82797 0.950465 8.54691
2 1.10284 2.40527 2.79899
2 6.42007 0.827542 1.71416
2 12.0703 10.6995 2.38775
2 10.8699 1.01733 9.03824
2 12.7327 10.1393 11.3806
2 2.19662 1.17196 5.27227
2 11.5984 2.44371 11.3053
2 10.4229 11.1964 4.49047
2 2.258 11.2373 9.96724
2 10.0617 1.02425 4.10779
2 1.13409 1.39249 10.9138
2 2.26262 11.667 4.76035
1 11.0106 7.92014 8.01199
1 5.13292 10.4575 1.91714
1 1.15149 4.14514 8.18329
1 7.8051 1.33593 1.13461
1 1.26164 7.70034 8.9309
1 8.29203 11.0336 1.66818
1 10.6325 4.68516 8.54899
1 4.9577 0.847329 1.94894
1 2.20576 4.9578 5.34832
1 7.57886 0.771366 10.3879
1 11.5766 7.68219 4.80668
1 4.47376 11.1962 12.3782
1 12.5669 4.74031 4.0835
1 5.17907 1.64809 12.1569
1 2.15214 8.21444 5.45271
1 7.63773 10.6176 12.1306
1 10.7696 10.1208 3.12532
1 1.33997 10.2027 11.2097
1 2.56835 2.26846 4.20818
1 10.3494 2.25638 10.2239
1 2.677 10.5166 3.53382
1 9.32096 9.95296 9.55117
1 10.0568 2.65857 3.06008
1 2.40909 1.99527 9.8887
1 0.0807775 2.07968 1.75587
1 11.1912 12.1544 8.7418
1 0.316966 11.5242 1.49018
1 2.20359 12.0223 8.3988
1 11.1192 9.97446 12.2714
1 1.24424 12.794 5.61876
1 -0.00824973 1.84158 11.8578
1 11.0129 12.5621 5.06677
96
 Atoms. Timestep: 10000
2 -0.0723472 7.94482 4.82985
2 4.6028 12.5452 12.0277
2 -0.0324116 5.28025 3.69934
2 7.34266 12.0439 11.0247
2 10.9248 8.04123 6.08639
2 7.74301 0.996629 1.21305
2 12.4359 7.50449 8.38068
2 5.80464 9.47182 1.87084
2 11.2033 10.1541 11.4074
2 4.58939 11.3993 0.894809
2 0.759984 5.00419 6.73341
2 0.659762 7.54906 12.982
2 1.51468 7.81428 7.14143
2 7.96065 11.4488 -0.0549605
2 0.77011 5.84461 9.23332
2 5.18928 2.04122 12.9929
2 10.483 6.57943 4.74883
2 6.24047 10.6315 12.2621
2 1.57924 6.63162 5.49083
2 6.14777 1.62422 10.3105
2 11.6357 4.67512 8.23858
2 4.33454 12.4238 2.66808
2 11.9024 3.98872 12.6026
2 6.39211 12.0633 1.82805
2 10.2948 8.64007 9.17627
2 4.17832 10.388 3.14866
2 2.29071 3.598 8.66521
2 10.2293 1.49025 2.181
2 1.80007 9.38631 9.10013
2 8.90619 12.2372 2.94814
2 9.54933 3.4147 9.3283
2 3.85851 2.13724 3.39822
2 1.73085 3.57798 5.01401
2 8.50683 1.56642 10.5148
2 10.2337 9.71695 3.63826
2 3.64767 10.2733 11.4266
2 11.3578 3.42791 2.73973
2 3.65576 1.63523 10.7632
2 1.87204 9.12596 3.81417
2 9.03668 9.93175 11.0569
2 12.1321 9.63843 0.308194
2 2.77379 7.42739 9.32392
2 1.06965 2.589 13.168
2 10.7129 0.583476 7.08853
2 0.841933 12.4989 0.641583
2 12.3368 11.8818 8.93634
2 9.9418 6.57077 8.54821
2 -0.0505981 12.4204 5.7814
2 0.334585 1.68484 1.95307
2 10.2477 11.3645 9.11687
2 1.11456 10.4357 1.74437
2 1.4261 1.2621 9.61245
2 3.16936 1.55242 1.3671
2 5.76966 1.56481 1.9032
2 11.2911 10.9107 2.07358
2 10.8408 1.35525 9.23911
2 0.950858 9.26256 11.4904
2 2.83575 0.731266 5.67137
2 11.4965 2.66873 11.0174
2 11.0591 11.8951 4.83467
2 1.14449 11.2162 10.3862
2 11.6991 1.52703 4.38427
2 1.89089 3.17065 10.8594
2 1.44022 11.2351 4.51352
1 10.9753 7.82321 7.72176
1 5.28768 10.8664 2.41395
1 0.744523 4.40092 8.34457
1 6.53968 1.70403 0.509369
1 1.21793 7.41891 8.72674
1 7.90765 12.1427 1.55555
1 9.91477 4.95192 8.85172
1 4.50347 1.08136 2.41764
1 1.00477 5.27612 4.78001
1 7.43149 0.613116 10.0515
1 11.0132 8.04853 4.70487
1 4.67925 11.076 12.6793
1 11.0849 5.21728 3.5801
1 4.89014 1.65174 11.5052
1 1.5237 8.41087 5.2408
1 7.82547 10.8063 11.9463
1 10.3307 11.3133 3.5612
1 2.2621 9.66363 10.6965
1 3.13331 2.17971 4.74689
1 9.96841 2.16093 10.2482
1 2.23474 10.5877 3.08241
1 10.4598 10.228 10.0911
1 11.8547 1.9031 2.66936
1 2.83428 2.43622 9.7266
1 1.35706 1.32308 0.644596
1 10.9892 -0.00667783 8.59728
1 -0.139068 11.2673 1.05344
1 0.352395 12.7104 10.3044
1 12.2518 9.09571 12.2635
1 1.90226 12.5237 5.76571
1 0.298523 3.22626 11.85
1 11.5887 0.336297 5.28544
96
 Atoms. Timestep: 12000
2 12.8228 9.25064 3.7339
2 4.12515 -0.0262019 11.3169
2 12.6438 7.61166 2.4514
2 7.82195 -0.268666 11.4219
2 11.8282 9.25285 7.04763
2 8.45542 11.2862 2.63417
2 0.939065 8.03663 7.78425
2 2.90758 12.6814 1.66189
2 11.3402 9.84896 12.1515
2 5.0032 12.5766 0.014115
2 1.49644 3.53176 5.94222
2 12.3755 8.0718 12.8245
2 2.91422 7.56162 6.71499
2 7.66709 12.901 0.402755
2 1.85209 4.66912 8.7259
2 3.64601 1.49431 12.7749
2 11.351 6.89026 4.49045
2 6.00203 11.4894 12.3096
2 3.00692 5.51059 4.58364
2 6.17164 1.76869 11.2515
2 12.5063 3.86309 6.96706
2 3.94777 1.13737 1.29048
2 12.6613 3.17658 -0.071097
2 6.10949 12.3805 2.21296
2 11.299 9.40777 9.47618
2 4.05458 11.1563 2.50309
2 1.11461 2.62207 8.80742
2 -0.103578 10.8141 2.37364
2 2.21793 5.78812 9.41673
2 12.4516 5.3317 1.60916
2 11.0599 3.74604 9.64559
2 12.4993 3.0986 2.31727
2 1.70672 3.31847 3.12088
2 9.11866 2.19335 11.0853
2 10.5976 9.93165 4.20409
2 3.72846 10.6361 11.3599
2 0.544596 4.56727 4.18541
2 3.59412 2.57126 10.176
2 3.19682 8.89544 4.02566
2 8.67213 10.393 11.4869
2 0.135054 9.81423 0.625586
2 2.84838 8.44508 9.68285
2 12.1394 4.74343 11.3878
2 11.5373 12.3166 7.73908
2 12.0122 0.468763 0.836971
2 -0.0671561 12.6226 9.73303
2 9.42276 4.9413 7.32127
2 0.672526 0.319678 6.02021
2 9.00754 0.311348 2.17716
2 11.1708 11.3719 9.84918
2 1.89058 9.98856 2.29379
2 2.17825 0.465113 10.1251
2 10.5266 2.27319 1.59604
2 5.01397 3.34579 0.423276
2 10.9381 12.8093 3.08672
2 10.652 0.683045 9.915
2 1.13232 9.49375 11.6694
2 0.308306 0.402557 3.72937
2 11.9961 2.36615 11.405
2 0.162835 10.7339 6.95569
2 1.98495 10.839 10.283
2 12.371 11.6717 4.88732
2 1.13469 3.07327 11.217
2 2.24897 11.6449 4.53421
1 12.76 9.52321 8.21632
1 4.62098 12.7776 1.5817
1 1.07018 3.76741 7.45725
1 3.64823 2.41206 0.423858
1 2.14941 7.17418 8.46433
1 7.63566 -0.297008 2.25307
1 11.0569 4.55705 8.05986
1 11.4909 3.3932 0.958111
1 2.12293 4.25259 4.49302
1 7.62097 1.37263 11.3256
1 11.9009 8.71135 5.24373
1 4.37556 11.9474 12.4436
1 12.4527 5.71747 3.48416
1 4.61217 1.92758 11.219
1 3.20146 7.32763 4.76545
1 7.8228 11.917 12.6526
1 9.9546 11.0656 3.29865
1 2.89515 9.32785 11.0263
1 0.780216 1.9029 2.5309
1 10.7529 2.23787 10.2823
1 2.79721 10.6956 3.30858
1 10.4649 10.413 11.1035
1 12.5531 12.2419 3.31241
1 2.06836 2.22171 10.0122
1 10.6442 0.68045 1.72754
1 11.4626 12.8216 9.21445
1 0.431214 9.27367 2.18278
1 1.65393 12.1064 9.42107
1 -0.254166 10.1021 12.8093
1 1.65958 0.127019 4.70955
1 -0.126416 3.38132 12.13
1 -0.215568 12.2525 6.67336
96
 Atoms. Timestep: 14000
2 10.8582 8.01845 4.32172
2 5.34431 -0.00159768 11.0231
2 11.4917 6.77478 2.63933
2 8.9901 12.0776 10.0277
2 9.97431 8.50299 6.15633
2 9.17563 10.8135 3.76112
2 0.139804 8.55859 7.71213
2 6.67615 9.86898 2.31398
2 11.69 8.80344 11.7448
2 5.42795 11.0047 0.0669916
2 1.96466 4.32095 6.60597
2 0.64885 7.20982 13.0746
2 2.61523 7.90636 7.56453
2 8.3716 9.14904 8.94391
2 0.934824 4.02764 9.83299
2 5.45019 1.36334 12.8671
2 10.753 5.82316 5.25317
2 6.94294 10.2119 10.6564
2 1.54225 7.07155 5.55596
2 7.33904 1.08745 10.9924
2 0.0894606 8.20258 9.81019
2 4.4995 12.3515 1.1941
2 12.2578 4.06232 12.9971
2 7.5489 12.3544 1.8942
2 10.6215 8.46588 8.72165
2 4.56613 11.444 2.91089
2 2.90481 3.19585 8.89187
2 9.68149 9.26866 2.36853
2 1.53789 5.89891 7.95662
2 11.0161 4.15616 2.49648
2 9.7913 5.64072 9.96042
2 0.796042 3.1637 2.06805
2 2.19083 4.96428 3.3173
2 8.96853 2.96711 11.3616
2 8.54172 7.97844 3.91887
2 4.08419 10.6355 11.0124
2 0.361828 4.50488 4.58687
2 4.49058 2.26812 10.247
2 3.36916 9.28877 4.99515
2 10.085 10.0556 10.2359
2 12.0942 9.03318 0.872607
2 2.39535 8.6848 9.89765
2 0.979048 5.69807 12.6054
2 10.7032 0.675231 8.07789
2 9.32432 0.500977 12.7007
2 11.8673 10.7917 11.4612
2 9.86894 6.26877 7.09506
2 12.4497 0.27301 5.8369
2 9.94 12.5111 2.09826
2 0.714348 2.22947 8.83739
2 1.83584 10.7731 2.85009
2 12.2141 0.656574 10.2021
2 11.6718 1.82749 1.12706
2 3.69799 2.72106 2.18405
2 12.03 12.4421 1.64145
2 11.3422 3.11428 10.1971
2 1.52241 9.32797 12.035
2 0.332846 0.453119 3.71285
2 11.5455 4.86984 11.0238
2 10.734 10.7617 6.72848
2 1.7075 11.0494 10.3701
2 11.4049 10.1297 2.94466
2 2.2332 3.90073 11.3849
2 2.72979 12.1263 4.86191
1 11.2833 9.10965 7.19266
1 6.02398 11.4887 1.81793
1 1.62271 4.02882 8.23915
1 4.20131 1.52004 1.05064
1 1.45656 7.82562 8.66992
1 8.72896 12.3264 3.20562
1 9.99074 6.61293 8.80109
1 11.9659 3.50744 1.25921
1 1.81648 5.17422 4.94375
1 8.98355 1.09978 10.9996
1 9.757 7.35101 5.20904
1 5.77578 11.0276 11.4778
1 11.4989 5.23509 3.8442
1 5.96123 1.69485 10.9629
1 2.68686 8.37534 5.91788
1 8.52545 10.6407 9.84742
1 8.36325 9.27761 3.20752
1 2.78618 9.90893 10.8513
1 2.24157 3.66758 2.37659
1 10.0792 3.93458 10.7656
1 3.32902 10.8928 3.81805
1 11.5125 9.15563 10.1216
1 12.5177 11.6766 2.97356
1 3.1766 2.86901 10.4887
1 10.6838 0.56966 0.67887
1 11.8793 1.84423 9.31658
1 11.5071 8.61249 2.45724
1 0.492476 11.9749 10.5277
1 0.21704 8.71851 12.6797
1 1.29254 0.410539 5.23158
1 0.642198 4.55193 11.6195
1 10.9347 12.5128 6.65008
96
 Atoms. Timestep: 16000
2 5.52969 6.82997 3.65145
2 6.17853 1.28705 11.2971
2 8.8633 5.90923 3.18467
2 9.83984 1.02075 10.8499
2 7.80741 9.43696 7.00407
2 9.09651 9.91176 1.93345
2 10.6726 10.4115 7.17579
2 6.77591 9.84458 2.63973
2 0.639088 10.7381 0.982998
2 6.15066 10.098 0.557015
2 3.05134 4.49288 7.18918
2 10.6847 8.32416 12.1857
2 2.01428 7.67916 8.32574
2 8.72475 11.6772 8.58196
2 2.1699 3.96398 10.2594
2 6.64051 2.21609 1.61004
2 11.306 7.71706 3.95009
2 7.64586 11.221 10.8723
2 3.45515 6.09738 6.19766
2 8.44593 1.96955 12.0469
2 11.3313 7.80184 9.21897
2 4.7316 11.5695 2.45911
2 1.49164 3.8616 12.8193
2 7.28523 0.836935 3.1875
2 10.33 5.89677 7.126
2 4.98829 9.10872 3.60877
2 3.66165 4.97074 9.18514
2 7.47591 7.44544 2.92403
2 1.12367 5.13095 8.82863
2 11.5884 5.8561 2.56952
2 9.34705 5.25252 9.4233
2 2.5635 4.94075 2.2135
2 3.48258 4.62621 4.04265
2 10.7178 2.9279 11.2048
2 6.06192 7.13548 6.28918
2 4.8647 10.8621 10.2772
2 9.7779 6.74506 5.21463
2 5.67228 3.73817 11.3595
2 3.83122 8.64442 6.27037
2 9.17249 9.88207 9.71352
2 9.732 7.79555 2.20899
2 3.79717 8.4422 9.24573
2 1.11434 6.3475 11.9625
2 10.7647 2.02836 6.21315
2 11.8259 1.51474 1.01628
2 11.3696 10.145 9.78853
2 8.19731 6.40551 6.68659
2 11.6321 10.8749 4.39327
2 9.52983 12.3498 4.03592
2 10.1922 3.83635 7.05477
2 9.46875 0.940385 1.61238
2 0.637893 1.23195 8.22161
2 1.7476 2.93593 2.48303
2 4.48629 2.96246 3.30697
2 2.36559 11.9134 1.42758
2 10.3264 3.2578 9.08763
2 3.18415 10.5882 11.4417
2 1.85594 8.57641 0.940941
2 11.4917 5.01886 10.8728
2 9.27363 11.5422 6.12337
2 2.41955 11.1688 8.67019
2 5.91379 5.18187 2.46365
2 3.43278 5.04647 11.4405
2 2.47532 9.59457 4.42125
1 8.82642 10.6043 7.48388
1 5.25705 10.1 2.33032
1 2.26203 3.98323 8.3169
1 5.46767 1.617 2.76244
1 11.9566 6.85709 8.05288
1 8.81457 11.4235 2.66329
1 9.12871 5.43985 7.73415
1 0.933502 4.33611 2.13274
1 3.48356 4.50515 5.54884
1 10.2328 1.62898 12.2447
1 7.54283 8.04905 6.56201
1 6.14135 10.9206 11.1857
1 10.4239 6.5383 3.57054
1 7.01968 2.91601 12.0232
1 3.6569 7.28971 7.84202
1 8.87295 11.6222 10.1266
1 8.07915 8.75315 1.90632
1 3.52838 10.2764 9.69132
1 4.26566 4.4478 2.62046
1 10.2217 4.16464 10.6722
1 3.83009 8.63808 4.79595
1 10.4881 8.96157 10.4384
1 2.42517 10.2568 0.826741
1 4.72125 5.06046 10.5965
1 1.3854 1.46321 2.03033
1 11.5271 2.75459 7.58264
1 6.91026 5.76856 3.61066
1 0.518808 11.0638 8.18666
1 0.773656 7.54787 0.586368
1 0.836194 9.30112 4.08473
1 1.74911 4.8788 11.476
1 10.6035 0.590152 5.2747
96
 Atoms. Timestep: 18000
2 8.32724 8.5729 4.18463
2 4.54788 1.55762 1.23114
2 7.23498 2.90868 4.25627
2 8.90453 1.19485 10.5312
2 9.41985 5.32203 7.91331
2 3.0619 11.8607 7.71286
2 10.029 7.57261 9.65359
2 6.62643 7.90042 2.48854
2 2.98142 10.3962 8.54185
2 5.06969 8.19011 12.4112
2 2.36752 5.46564 6.74104
2 11.3063 9.25362 11.4663
2 2.15297 8.80728 7.15627
2 7.52011 10.8003 8.29208
2 5.03071 7.15917 9.55749
2 5.5755 3.28217 0.682238
2 10.8637 8.72475 3.84177
2 6.92573 11.3831 10.3499
2 3.5028 7.82443 5.28627
2 8.27321 2.561 12.2459
2 0.655422 8.43532 9.61608
2 5.77432 10.1214 12.1144
2 0.687562 4.54537 12.0003
2 5.37352 1.91687 3.21317
2 0.749266 6.80346 7.76276
2 4.60932 9.36566 2.89344
2 5.87742 3.36952 8.40873
2 8.1623 5.87523 3.76986
2 3.06832 8.16011 9.6964
2 12.1785 6.82516 2.014
2 0.528138 4.59824 9.12527
2 1.08561 3.8531 2.38765
2 2.30466 5.28822 4.09494
2 8.94272 4.02223 10.0287
2 8.97941 4.79528 5.34898
2 5.41736 9.80891 8.88795
2 9.59998 7.69939 6.92516
2 5.11587 3.73106 10.5908
2 3.5871 10.2889 5.45392
2 9.33327 10.1252 10.1658
2 9.63082 7.81806 1.96521
2 5.46103 8.15126 6.89333
2 3.26228 6.03519 11.5421
2 2.46457 2.35677 5.20416
2 10.8095 2.22198 1.54629
2 10.9202 10.781 9.06301
2 11.2707 4.79793 6.46644
2 9.16989 10.0339 6.71476
2 7.36382 0.125702 5.02652
2 1.26559 3.04648 7.6429
2 7.75818 1.74033 2.31313
2 0.639486 0.878784 7.71193
2 10.2721 4.00123 2.43563
2 3.30177 3.30445 3.14863
2 1.91706 1.00624 1.15218
2 10.3778 2.23923 9.4604
2 4.33327 11.2488 11.3039
2 1.96958 10.5195 0.3686
2 1.91143 2.61102 11.7324
2 7.55889 7.70508 8.02825
2 11.6478 12.3665 10.8335
2 3.31343 2.31683 7.78371
2 3.24859 4.25481 9.73975
2 2.99121 10.9223 2.38339
1 9.28517 7.06779 8.25045
1 5.53383 8.95279 1.67702
1 4.09894 7.55324 11.1394
1 4.43901 2.72748 2.12047
1 2.00362 8.93156 8.77286
1 6.8219 1.48961 3.83204
1 0.991598 5.05178 7.75304
1 11.7133 4.92687 1.52586
1 2.88982 6.27708 5.16692
1 9.11881 2.70398 1.65336
1 9.77968 4.11743 6.56475
1 5.52097 10.3222 10.363
1 11.2647 8.1572 2.4224
1 6.73434 3.63958 11.5687
1 3.81272 8.93597 6.3323
1 8.37982 11.3187 9.60992
1 8.20118 7.60222 2.83121
1 5.96974 8.28947 8.17893
1 2.15514 3.78954 3.75709
1 10.6886 3.72334 9.8551
1 3.69205 10.845 3.84865
1 10.6985 8.96069 9.76404
1 3.32023 11.2654 0.901465
1 4.09043 3.10721 9.02179
1 0.563727 1.60223 12.4539
1 1.90662 1.48063 6.86733
1 7.61421 4.47837 4.34662
1 11.1772 0.809739 8.98323
1 0.655136 9.67154 1.24231
1 9.53076 8.95865 5.31734
1 2.226 4.37082 10.9301
1 8.12656 11.4501 6.83944
96
 Atoms. Timestep: 20000
2 7.72425 8.0388 4.45208
2 4.44718 1.79246 1.77697
2 7.71331 3.52036 5.02287
2 8.3218 2.61826 10.9651
2 7.92017 5.68887 8.33049
2 2.59353 11.8111 6.95136
2 8.81787 8.05958 9.42805
2 7.29843 7.52785 1.50526
2 3.2601 10.9829 7.73597
2 5.25321 7.39196 11.6349
2 1.23987 5.26852 5.91716
2 11.4581 9.05835 10.9206
2 1.53314 9.69149 6.62189
2 8.37884 11.7713 8.37152
2 3.56883 6.30308 6.66716
2 6.91801 2.88872 1.28194
2 9.95567 8.447 4.21168
2 7.06308 11.49 10.7653
2 2.04313 8.08583 5.38618
2 9.45138 1.86468 1.17414
2 11.2771 9.2392 8.28728
2 5.80064 9.86176 12.6751
2 1.61667 5.07563 1.06614
2 6.82887 1.82849 3.63834
2 11.7908 3.7593 8.27108
2 5.09193 8.5739 1.57434
2 4.21348 5.12777 10.309
2 6.82648 6.31235 4.83659
2 1.23179 9.50146 9.70874
2 11.5733 6.00278 3.15014
2 11.9368 4.36368 10.5032
2 1.96006 3.73076 3.21848
2 3.55791 5.5176 4.36856
2 9.75845 3.3715 9.37972
2 7.4519 4.34853 6.81929
2 4.12938 7.56976 9.12384
2 8.75941 7.70304 6.8734
2 4.93634 3.32765 10.9523
2 3.75202 9.95733 3.89959
2 9.68432 0.751589 9.8745
2 9.04514 6.4821 2.87123
2 4.06197 8.83676 6.14079
2 2.82252 6.19409 11.7297
2 3.38997 2.53164 5.26377
2 0.469682 1.90613 1.10281
2 0.488926 11.4897 8.51392
2 10.3557 4.37123 6.69234
2 8.62595 10.0002 5.94901
2 9.30402 0.419017 5.14171
2 1.08704 2.23402 6.05961
2 9.91351 1.6344 3.36268
2 10.5126 11.4559 7.16497
2 11.0513 3.87813 2.14636
2 4.60566 3.6478 3.09497
2 2.59635 1.27593 0.521431
2 11.7346 1.93221 10.8801
2 4.94534 0.567849 12.0249
2 1.34732 11.5361 11.4799
2 1.54132 3.17412 11.6575
2 6.03032 7.05202 7.43016
2 2.70626 1.68504 10.472
2 3.41764 2.58428 8.16011
2 2.16658 4.20931 9.96626
2 4.28189 11.3321 1.84392
1 7.48503 7.49026 7.96482
1 6.03367 8.0268 12.7686
1 4.24852 6.61229 10.7262
1 5.85739 2.69446 2.47803
1 1.24209 9.91429 8.20734
1 8.4624 1.93021 4.48817
1 11.9734 4.4057 6.84615
1 0.598939 4.54459 2.70232
1 2.26123 6.56242 5.37557
1 10.9651 2.16519 1.9325
1 8.9548 4.31073 7.87013
1 5.55772 11.0226 11.4744
1 10.4103 7.17495 3.3699
1 8.34078 2.84324 12.9964
1 2.84834 9.60783 5.43787
1 8.11531 0.966395 10.1766
1 7.5231 7.17298 3.12303
1 4.52276 7.70926 7.17277
1 3.19617 3.83945 4.1745
1 11.2607 3.16721 9.90178
1 4.41492 9.80051 2.45404
1 10.2812 8.69686 9.55772
1 3.92908 0.681301 0.8419
1 3.50109 3.16321 9.69872
1 1.30329 1.51957 11.7093
1 2.57184 1.89713 6.64439
1 6.63695 4.73566 5.45762
1 10.715 0.440772 8.61919
1 1.03424 10.0179 11.2209
1 9.0304 8.42202 5.46668
1 1.40952 5.14263 11.3433
1 9.15868 11.4659 6.42263
96
 Atoms. Timestep: 22000
2 9.39849 8.7822 3.4656
2 5.46691 1.53853 2.38032
2 8.86166 4.53866 4.06179
2 7.09963 11.937 11.6154
2 6.91085 5.57061 8.30061
2 2.75371 1.67983 6.02545
2 7.72629 8.07025 7.98748
2 6.96897 7.53939 1.99842
2 1.49232 10.2953 3.92629
2 5.73772 6.61475 11.5751
2 11.6534 6.24043 7.2599
2 9.83503 9.73184 9.63761
2 0.609006 10.9709 6.3391
2 6.38266 0.882523 6.82379
2 3.9971 4.38782 8.28465
2 8.49062 3.07241 9.90181
2 9.86745 8.85452 5.7771
2 5.11653 10.9275 9.69094
2 1.08633 8.05582 5.79846
2 9.42327 2.05722 12.2832
2 9.39208 10.109 7.28128
2 5.56276 9.10413 12.0296
2 2.27366 4.62112 2.54462
2 7.12919 3.40093 2.17356
2 1.70948 5.8395 9.89869
2 4.84464 7.61937 2.40491
2 6.10183 4.1867 10.3605
2 9.68926 6.58568 2.5835
2 10.8861 11.5986 8.96217
2 1.89952 4.13912 5.66091
2 2.42159 5.08184 12.4439
2 3.52859 5.65981 4.69864
2 4.65239 3.80946 5.93147
2 11.5274 4.13985 11.8873
2 8.2869 3.3861 7.77914
2 4.16392 6.0605 9.73288
2 7.67389 8.2292 6.0729
2 3.53645 1.99235 7.92891
2 3.12223 8.54622 4.49022
2 7.00645 9.9821 8.52712
2 10.0926 6.21436 5.36219
2 3.33737 9.59862 6.63947
2 4.66883 4.5543 12.4358
2 6.20371 5.8233 5.81834
2 0.9109 2.23055 12.1084
2 9.64222 1.53558 7.51699
2 11.122 4.22463 7.95233
2 8.28268 11.1379 5.17777
2 6.95458 2.11126 4.43966
2 11.5802 2.51775 6.24497
2 9.8422 2.7159 2.45524
2 8.57572 2.74632 5.92336
2 11.639 4.66086 3.76641
2 4.9031 3.71724 3.92641
2 3.70395 11.8233 1.3648
2 2.43153 3.40332 10.3055
2 5.74048 10.9767 1.12651
2 0.757861 11.5592 11.3237
2 4.14386 10.7167 7.18922
2 5.10557 7.07324 7.75489
2 2.62048 0.754087 10.5488
2 1.54664 2.62411 7.99487
2 3.07106 2.59099 12.3323
2 5.29176 9.76221 3.37242
1 6.74567 6.86037 6.8296
1 5.71587 7.67984 1.10998
1 4.92824 5.29713 10.8227
1 5.28947 3.27143 2.38946
1 10.2964 11.4441 7.20618
1 8.20233 3.19618 3.33107
1 0.948454 5.19878 7.99009
1 2.10464 5.23887 4.13765
1 4.67382 3.11395 7.30372
1 10.8406 2.90679 0.578274
1 7.26794 4.02325 8.92915
1 5.92155 10.6109 11.3763
1 11.0375 7.47135 6.08826
1 8.5095 1.68043 11.1873
1 2.01952 9.54339 5.48694
1 5.73336 10.823 7.65168
1 8.64727 7.80431 2.27689
1 3.5172 6.07079 8.15304
1 4.8721 4.98002 5.05529
1 1.43947 4.53608 11.1588
1 4.68228 8.2605 3.94735
1 8.52673 9.31589 8.42248
1 4.6922 11.2994 2.57627
1 2.40452 2.25577 9.17286
1 2.10576 0.778185 12.2792
1 1.62749 2.78812 6.42716
1 10.0674 5.27727 4.13179
1 9.89921 3.1439 6.98795
1 11.305 10.7041 9.99741
1 8.49314 9.35694 4.9128
1 3.32651 4.15463 1.34661