LAMMPS (2 Aug 2023 - Update 3)
units metal
boundary p p p
atom_style full
pair_style tersoff
neighbor 2.0 bin
neigh_modify delay 1




read_data SiO.data
Reading data file ...
  orthogonal box = (0 0 0) to (12.589463 12.589463 13.222096)
  1 by 1 by 1 MPI processor grid
WARNING: Atom style in data file atom-ID molecule-ID atom-type q x y z differs from currently defined atom style full (../read_data.cpp:621)
  reading atoms ...
  96 atoms
Finding 1-2 1-3 1-4 neighbors ...
  special bond factors lj:    0        0        0       
  special bond factors coul:  0        0        0       
     0 = max # of 1-2 neighbors
     0 = max # of 1-3 neighbors
     0 = max # of 1-4 neighbors
     1 = max # of special neighbors
  special bonds CPU = 0.000 seconds
  read_data CPU = 0.005 seconds
replicate 1 1 1
Replication is creating a 1x1x1 = 1 times larger system...
  orthogonal box = (0 0 0) to (12.589463 12.589463 13.222096)
  1 by 1 by 1 MPI processor grid
  96 atoms
Finding 1-2 1-3 1-4 neighbors ...
  special bond factors lj:    0        0        0       
  special bond factors coul:  0        0        0       
     0 = max # of 1-2 neighbors
     0 = max # of 1-3 neighbors
     0 = max # of 1-4 neighbors
     1 = max # of special neighbors
  special bonds CPU = 0.000 seconds
  replicate CPU = 0.001 seconds

pair_coeff * *  /root/Desktop/host/job1/SiO.tersoff Si O
Reading tersoff potential file /root/Desktop/host/job1/SiO.tersoff with DATE: 2010-08-16



group Si type 1
32 atoms in group Si
group O type 2
64 atoms in group O
#create_bonds many SiO SiO 1 0.5 10

dump dmp all xyz 2000 dump.lammpstrj



variable apot equal pe
# first number: number of steps to get current temp
# second number: calculate average n number of temp read above.
# third number: temp record (this must be larger than the one above )

variable atemp equal temp
fix temp_info all ave/time 10 200 2000 v_atemp file temperature.dat

#The cutoff used for pairwise computation (any pair style) and the
#associated neighbor list is the maximum cutoff that any compute
#can use. Atoms don't know any info about their neighbors
#further away than that.

# compute coord number
compute coor12 Si coord/atom cutoff 2.5 group O
compute coor11 Si coord/atom cutoff 2.5 group Si
compute coor22 O coord/atom cutoff 2.0 group O

compute sumcoor12 all reduce ave c_coor12
compute sumcoor11 all reduce ave c_coor11
compute sumcoor22 all reduce ave c_coor22


fix 12coord all ave/time  10 200 2000 c_sumcoor12 file Si-O_coord_number.dat
fix 11coord all ave/time  10 200 2000  c_sumcoor11 file Si-Si_coord_number.dat
fix 22coord all ave/time  10 200 2000  c_sumcoor22 file O-O_coord_number.dat




# unit cell information
variable avol equal vol
variable alx equal lx
variable aly equal ly
variable alz equal lz
fix cell_info all ave/time 10 200 2000 v_avol v_alx v_aly v_alz file cell_volume.dat


fix potential_info all ave/time 10 200 2000 v_apot file potential-energy.dat
thermo 1000



velocity all create 6000 491357 mom yes rot no dist gaussian
fix npt1 all npt temp 6000 5000 0.1 iso 0 0  1
timestep 0.001
#run 500
run 80000
Neighbor list info ...
  update: every = 1 steps, delay = 1 steps, check = yes
  max neighbors/atom: 2000, page size: 100000
  master list distance cutoff = 4.8
  ghost atom cutoff = 4.8
  binsize = 2.4, bins = 6 6 6
  4 neighbor lists, perpetual/occasional/extra = 1 3 0
  (1) pair tersoff, perpetual
      attributes: full, newton on
      pair build: full/bin
      stencil: full/bin/3d
      bin: standard
  (2) compute coord/atom, occasional, copy from (1)
      attributes: full, newton on
      pair build: copy
      stencil: none
      bin: none
  (3) compute coord/atom, occasional, copy from (1)
      attributes: full, newton on
      pair build: copy
      stencil: none
      bin: none
  (4) compute coord/atom, occasional, copy from (1)
      attributes: full, newton on
      pair build: copy
      stencil: none
      bin: none
Per MPI rank memory allocation (min/avg/max) = 6.021 | 6.021 | 6.021 Mbytes
   Step          Temp          E_pair         E_mol          TotEng         Press          Volume    
         0   6000          -638.06385      0             -564.38556      73800.118      2095.6304    
      1000   6160.1503     -556.6055       0             -480.96062     -24051.502      2258.1438    
      2000   6229.8661     -555.1785       0             -478.67753     -7672.5676      2415.3115    
      3000   6539.2748     -549.22504      0             -468.92462      3786.7197      2438.1605    
      4000   5927.4561     -558.87465      0             -486.08718     -19175.662      2385.4529    
      5000   5546.3974     -542.20907      0             -474.10089      25070.858      2234.1223    
      6000   5582.1639     -556.18964      0             -487.64226     -26086.019      2217.4348    
      7000   6015.8688     -555.68288      0             -481.80973      20243.659      2285.8926    
      8000   6080.8703     -549.72733      0             -475.05599     -1127.5962      2232.5935    
      9000   5848.2876     -556.21175      0             -484.39645      4875.4526      2313.1986    
     10000   5437.844      -535.52218      0             -468.74701      7647.9339      2237.1947    
     11000   5503.7675     -522.01216      0             -454.42747     -19566.582      2331.7526    
     12000   5520.4918     -523.96835      0             -456.17829     -10465.747      2385.2736    
     13000   5689.2816     -539.83353      0             -469.97078     -18326.647      2109.7542    
     14000   6596.4743     -540.9686       0             -459.96579      19069.56       2087.6915    
     15000   5824.8562     -530.35249      0             -458.82492      6140.3578      1941.5223    
     16000   5266.4782     -527.70967      0             -463.03883      50105.741      1581.4052    
     17000   6781.5847     -528.96915      0             -445.69323      21542.883      1658.3625    
     18000   6249.8948     -525.30814      0             -448.56122     -7410.0867      1581.5785    
     19000   4988.6157     -537.21023      0             -475.95146     -28284.181      1508.9666    
     20000   5598.1704     -541.37605      0             -472.63212     -767.10437      1730.2337    
     21000   5091.7538     -536.5411       0             -474.01582     -30222.911      1755.6983    
     22000   6386.8475     -533.39361      0             -454.96495     -11531.225      1551.2995    
     23000   5654.9617     -552.25753      0             -482.81622      48307.635      1485.1469    
     24000   5596.4035     -535.36825      0             -466.64602     -23938.935      1522.2604    
     25000   5709.6107     -548.6597       0             -478.54731     -17741.435      1404.8567    
     26000   5419.9374     -541.20533      0             -474.65005     -20358.143      1431.6677    
     27000   5849.3306     -542.21499      0             -470.38689     -15200.601      1507.1759    
     28000   4970.8612     -549.07663      0             -488.03587     -20143.071      1632.1988    
     29000   5004.328      -528.93095      0             -467.47924      30356.61       1550.6452    
     30000   5805.9282     -507.67728      0             -436.38215      40300.15       1678.401     
     31000   5643.7794     -538.5919       0             -469.28791     -16977.048      1606.7503    
     32000   6111.3012     -536.67714      0             -461.63211     -14256.217      1646.4563    
     33000   5781.1346     -548.36011      0             -477.36943      22416.057      1469.5663    
     34000   5176.3756     -530.04505      0             -466.48064     -22845.987      1606.7618    
     35000   5732.5911     -541.49341      0             -471.09883     -32096.109      1679.6167    
     36000   5185.7532     -546.5566       0             -482.87704      22530.576      1556.8675    
     37000   6416.6742     -549.76499      0             -470.97007      23488.463      1669.3498    
     38000   5573.1066     -538.40149      0             -469.96534     -20185.065      1655.1185    
     39000   6069.4583     -535.87122      0             -461.34001      22788.045      1677.4923    
     40000   5052.6124     -539.19345      0             -477.14882     -29171.086      1702.6245    
     41000   5139.4458     -540.37072      0             -477.2598       4469.5674      1529.6108    
     42000   5481.5133     -546.59762      0             -479.2862      -3828.3123      1516.5736    
     43000   5634.9068     -547.71491      0             -478.51987      24036.414      1403.2444    
     44000   5834.7705     -545.39763      0             -473.74832      72950.822      1396.4187    
     45000   5680.1945     -548.95968      0             -479.20851      5194.9208      1519.7041    
     46000   5952.5476     -551.26839      0             -478.17281      7527.1248      1517.6371    
     47000   5221.4278     -544.91427      0             -480.79664      51528.456      1413.7929    
     48000   5056.5257     -543.01191      0             -480.91922     -19666.377      1441.377     
     49000   5269.6546     -551.80601      0             -487.09616      57098.597      1339.4359    
     50000   4400.5664     -548.17218      0             -494.13449      23412.674      1369.2252    
     51000   4869.7901     -553.53222      0             -493.73259     -44386.766      1433.9093    
     52000   4382.6152     -548.39018      0             -494.57292      2669.4761      1395.5211    
     53000   5331.0725     -542.32902      0             -476.86497     -45469.971      1367.6699    
     54000   5960.131      -539.84487      0             -466.65616     -50867.281      1422.7989    
     55000   5265.1088     -549.27032      0             -484.61629     -12683.145      1466.5837    
     56000   4931.1485     -545.92626      0             -485.37316      3056.4938      1505.7704    
     57000   5742.1911     -557.48494      0             -486.97248      67568.603      1488.2585    
     58000   5729.3295     -551.99519      0             -481.64067      37312.003      1459.3371    
     59000   5713.9826     -546.36827      0             -476.2022       77249.345      1522.677     
     60000   5643.2574     -551.96703      0             -482.66945     -23518.642      1428.7209    
     61000   5720.4282     -555.29454      0             -485.04932     -36886.325      1489.0185    
     62000   5764.7877     -547.26144      0             -476.4715      -37547.742      1422.5454    
     63000   4635.8732     -554.8732       0             -497.946        13399.423      1347.0573    
     64000   5395.9915     -537.88384      0             -471.62261     -28111.656      1423.3096    
     65000   4897.3822     -549.37611      0             -489.23766      14407.24       1401.6495    
     66000   5015.4723     -546.61758      0             -485.02902     -27439.381      1269.7699    
     67000   4798.3626     -542.48614      0             -483.56362     -65235.874      1366.2916    
     68000   5208.1395     -557.12501      0             -493.17054     -3741.5052      1505.4323    
     69000   5171.7367     -566.59565      0             -503.0882      -9762.0795      1537.4487    
     70000   5252.7338     -558.92419      0             -494.42213      12026.105      1455.6029    
     71000   5403.5327     -569.69723      0             -503.3434       10741.074      1506.0127    
     72000   4795.419      -552.80346      0             -493.91709     -34088.641      1511.3804    
     73000   5033.6861     -534.69906      0             -472.88683     -3493.263       1547.8232    
     74000   4999.7941     -544.06765      0             -482.6716       40305.356      1414.5442    
     75000   4723.3333     -539.17885      0             -481.17767      33154.441      1570.5151    
     76000   5150.6559     -559.35301      0             -496.10443      39860.7        1436.3065    
     77000   5826.085      -544.6199       0             -473.07724      20413.902      1477.9832    
     78000   4977.4916     -556.81504      0             -495.69287      991.2458       1544.1607    
     79000   5625.2186     -551.03653      0             -481.96045     -1843.4308      1428.9666    
     80000   5376.4522     -557.5006       0             -491.47931      39627.099      1388.8463    
Loop time of 6.59815 on 1 procs for 80000 steps with 96 atoms

Performance: 1047.566 ns/day, 0.023 hours/ns, 12124.608 timesteps/s, 1.164 Matom-step/s
99.1% CPU use with 1 MPI tasks x no OpenMP threads

MPI task timing breakdown:
Section |  min time  |  avg time  |  max time  |%varavg| %total
---------------------------------------------------------------
Pair    | 5.4629     | 5.4629     | 5.4629     |   0.0 | 82.80
Bond    | 0.002565   | 0.002565   | 0.002565   |   0.0 |  0.04
Neigh   | 0.44532    | 0.44532    | 0.44532    |   0.0 |  6.75
Comm    | 0.20638    | 0.20638    | 0.20638    |   0.0 |  3.13
Output  | 0.010221   | 0.010221   | 0.010221   |   0.0 |  0.15
Modify  | 0.43786    | 0.43786    | 0.43786    |   0.0 |  6.64
Other   |            | 0.03286    |            |       |  0.50

Nlocal:             96 ave          96 max          96 min
Histogram: 1 0 0 0 0 0 0 0 0 0
Nghost:            522 ave         522 max         522 min
Histogram: 1 0 0 0 0 0 0 0 0 0
Neighs:              0 ave           0 max           0 min
Histogram: 1 0 0 0 0 0 0 0 0 0
FullNghs:         3034 ave        3034 max        3034 min
Histogram: 1 0 0 0 0 0 0 0 0 0

Total # of neighbors = 3034
Ave neighs/atom = 31.604167
Ave special neighs/atom = 0
Neighbor list builds = 3775
Dangerous builds = 0

fix npt1 all npt temp 5000 4000 0.1 iso 0 0 1
run 80000
Per MPI rank memory allocation (min/avg/max) = 8.549 | 8.549 | 8.549 Mbytes
   Step          Temp          E_pair         E_mol          TotEng         Press          Volume    
     80000   5376.4522     -557.5006       0             -491.47931      39627.099      1388.8463    
     81000   4677.5599     -557.68204      0             -500.24294      45662.522      1384.4236    
     82000   5091.8751     -554.28048      0             -491.75371     -11589.352      1388.4955    
     83000   4458.2199     -549.53338      0             -494.78771      10640.571      1466.2301    
     84000   6106.2841     -558.42382      0             -483.4404       21275.509      1736.3646    
     85000   4686.1624     -558.36002      0             -500.81529      24187.001      1506.347     
     86000   4733.6153     -565.16259      0             -507.03515      39255.356      1514.9494    
     87000   4317.6645     -555.09868      0             -502.079        1554.0027      1667.8607    
     88000   5210.7889     -556.07921      0             -492.09221     -29627.448      1643.6021    
     89000   5110.6439     -564.72133      0             -501.96409      30193.459      1614.6627    
     90000   5107.1684     -554.21619      0             -491.50162      39890.299      1552.8867    
     91000   4854.2811     -552.76083      0             -493.15165      4891.9575      1704.1263    
     92000   5064.3633     -563.34597      0             -501.15704     -7520.6591      1628.5099    
     93000   4889.9052     -551.12192      0             -491.07528      41910.241      1742.2528    
     94000   4976.6388     -557.99306      0             -496.88136     -14365.148      1693.2712    
     95000   4576.5078     -556.69228      0             -500.49408      10737.163      1724.1622    
     96000   4503.6752     -555.26661      0             -499.96276     -14765.051      1699.694     
     97000   4857.1633     -550.753        0             -491.10842     -5895.8128      1601.8876    
     98000   4480.5268     -552.8399       0             -497.82031      13446.686      1692.6616    
     99000   5354.36       -553.74975      0             -487.99975      17538.413      1581.2434    
    100000   5167.2128     -563.08574      0             -499.63385      9984.022       1654.1449    
    101000   5283.8844     -551.00082      0             -486.11623      14516.224      1569.4005    
    102000   4175.7915     -549.49177      0             -498.21424      14847.421      1672.3844    
    103000   4536.1469     -561.35808      0             -505.65549     -5408.8192      1539.2982    
    104000   4947.0782     -561.98899      0             -501.24028      30216.272      1489.3026    
    105000   4407.789      -563.7728       0             -509.64641      20000.4        1442.1088    
    106000   4179.1992     -560.61499      0             -509.29563     -6541.9207      1516.3276    
    107000   4620.8817     -558.40942      0             -501.66631      5387.1703      1485.8391    
    108000   4587.7321     -567.06321      0             -510.72718     -9204.7153      1453.5056    
    109000   4806.2355     -570.62478      0             -511.60558     -15157.767      1491.3943    
    110000   4899.1474     -564.37975      0             -504.21962     -1623.6027      1489.9019    
    111000   4283.18       -570.63215      0             -518.03592     -55205.114      1515.3977    
    112000   4278.701      -563.19946      0             -510.65823     -34416.79       1392.3678    
    113000   5172.7129     -560.18458      0             -496.66514     -33528.293      1481.6871    
    114000   4760.7288     -563.81955      0             -505.35917      9963.903       1364.818     
    115000   4031.8641     -561.39805      0             -511.88791      16437.112      1423.0522    
    116000   4531.2096     -556.90217      0             -501.26021      24124.03       1308.8338    
    117000   3990.0522     -560.32777      0             -511.33108     -2935.7561      1364.9886    
    118000   4554.2575     -571.86267      0             -515.93769     -2701.7018      1371.8579    
    119000   4155.5217     -569.74449      0             -518.71587     -1936.4035      1312.5853    
    120000   4070.7925     -565.69867      0             -515.7105       24839.629      1297.3939    
    121000   4461.497      -569.18431      0             -514.3984      -24031.522      1294.9348    
    122000   4865.1921     -558.56172      0             -498.81855     -48219.512      1368.334     
    123000   4671.1924     -570.15881      0             -512.7979      -33273.11       1351.4104    
    124000   4633.1204     -564.62778      0             -507.73438      8977.6378      1355.8648    
    125000   4483.3081     -569.77896      0             -514.72522     -497.9555       1456.1771    
    126000   5041.6178     -571.14964      0             -509.24001     -36534.507      1418.8256    
    127000   5160.9562     -568.94717      0             -505.5721      -3731.7783      1405.018     
    128000   4433.3941     -562.37168      0             -507.93087     -50110.68       1460.7171    
    129000   4157.6093     -571.61544      0             -520.56119     -59320.122      1437.3614    
    130000   4375.3219     -562.88467      0             -509.15696     -14362.583      1484.7198    
    131000   4463.585      -556.14426      0             -501.33271      39754.538      1376.4517    
    132000   3956.1513     -561.55788      0             -512.97747      16286.434      1411.6608    
    133000   4749.3814     -565.1975       0             -506.87646     -2565.2669      1384.6581    
    134000   4286.3968     -568.6879       0             -516.05218      23646.479      1386.7935    
    135000   3967.622      -565.00551      0             -516.28425      11040.255      1441.0171    
    136000   4005.2055     -572.07917      0             -522.8964      -38991.166      1399.7966    
    137000   3724.1547     -567.39394      0             -521.66238      3535.7321      1369.19      
    138000   4806.786      -567.45305      0             -508.42709      14856.273      1328.4656    
    139000   3642.6216     -565.76539      0             -521.03504     -27444.149      1384.0751    
    140000   3920.2887     -573.07185      0             -524.93182     -280.55252      1355.7428    
    141000   4181.4009     -571.24699      0             -519.90058      34636.511      1335.012     
    142000   4104.5247     -564.66045      0             -514.25806      30763.286      1428.7736    
    143000   4728.6524     -574.74613      0             -516.67964     -7562.4528      1456.811     
    144000   4158.7857     -567.55819      0             -516.4895      -7899.4999      1419.5913    
    145000   4259.2538     -573.69426      0             -521.39184     -50145.696      1418.7232    
    146000   3868.8176     -575.12785      0             -527.61988      32210.864      1471.0951    
    147000   4002.3525     -569.21129      0             -520.06354      4908.9474      1467.5377    
    148000   3810.4053     -567.22827      0             -520.43759     -14968.432      1392.2764    
    149000   3892.1932     -574.75156      0             -526.95655     -2952.1057      1317.737     
    150000   3829.5838     -569.51879      0             -522.49259     -2800.9584      1350.7369    
    151000   4588.4329     -566.55588      0             -510.21124     -38001.816      1406.6445    
    152000   4231.2659     -568.88837      0             -516.92964     -18468.775      1375.6907    
    153000   3811.6608     -568.89397      0             -522.08787      59776.017      1318.2587    
    154000   4567.3163     -568.33007      0             -512.24473      55296.191      1344.1106    
    155000   4200.8196     -568.42518      0             -516.84031      5221.8848      1373.1163    
    156000   3510.8297     -569.2556       0             -526.14361      40827.533      1394.4132    
    157000   4517.8375     -577.38839      0             -521.91064      30380.555      1395.9998    
    158000   4129.3321     -572.32324      0             -521.61623      9252.8639      1368.4363    
    159000   4150.5833     -576.7331       0             -525.76513     -18772.832      1371.3033    
    160000   4311.3452     -571.229        0             -518.28692      26607.752      1381.9713    
Loop time of 6.44823 on 1 procs for 80000 steps with 96 atoms

Performance: 1071.922 ns/day, 0.022 hours/ns, 12406.502 timesteps/s, 1.191 Matom-step/s
99.4% CPU use with 1 MPI tasks x no OpenMP threads

MPI task timing breakdown:
Section |  min time  |  avg time  |  max time  |%varavg| %total
---------------------------------------------------------------
Pair    | 5.3913     | 5.3913     | 5.3913     |   0.0 | 83.61
Bond    | 0.002615   | 0.002615   | 0.002615   |   0.0 |  0.04
Neigh   | 0.40505    | 0.40505    | 0.40505    |   0.0 |  6.28
Comm    | 0.19731    | 0.19731    | 0.19731    |   0.0 |  3.06
Output  | 0.0086481  | 0.0086481  | 0.0086481  |   0.0 |  0.13
Modify  | 0.4125     | 0.4125     | 0.4125     |   0.0 |  6.40
Other   |            | 0.03076    |            |       |  0.48

Nlocal:             96 ave          96 max          96 min
Histogram: 1 0 0 0 0 0 0 0 0 0
Nghost:            505 ave         505 max         505 min
Histogram: 1 0 0 0 0 0 0 0 0 0
Neighs:              0 ave           0 max           0 min
Histogram: 1 0 0 0 0 0 0 0 0 0
FullNghs:         3044 ave        3044 max        3044 min
Histogram: 1 0 0 0 0 0 0 0 0 0

Total # of neighbors = 3044
Ave neighs/atom = 31.708333
Ave special neighs/atom = 0
Neighbor list builds = 3312
Dangerous builds = 0

fix npt1 all npt temp 4000 4000 0.1 iso 0 0 1
run 80000
Per MPI rank memory allocation (min/avg/max) = 8.549 | 8.549 | 8.549 Mbytes
   Step          Temp          E_pair         E_mol          TotEng         Press          Volume    
    160000   4311.3452     -571.229        0             -518.28692      26607.752      1381.9713    
    161000   4154.4728     -570.09103      0             -519.0753      -26160.589      1396.0848    
    162000   3698.3533     -571.73826      0             -526.32354      18660.092      1455.5159    
    163000   4147.129      -560.12879      0             -509.20323     -45772.662      1463.49      
    164000   3893.3371     -573.83787      0             -526.0288      -18292.268      1419.0057    
    165000   3667.5076     -570.57322      0             -525.53727      34342.299      1389.8094    
    166000   4156.5529     -561.14699      0             -510.10571     -16402.587      1401.7899    
    167000   4094.2423     -572.25971      0             -521.98359      9515.7632      1377.6231    
    168000   3529.7647     -572.49759      0             -529.15309     -4572.9144      1402.9152    
    169000   3887.1978     -567.95192      0             -520.21824     -29474.109      1462.7189    
    170000   3847.4287     -571.97367      0             -524.72834     -17673.9        1396.239     
    171000   4140.9622     -568.61688      0             -517.76705     -30936.004      1457.7976    
    172000   4151.6968     -577.50133      0             -526.51968     -8611.256       1435.6972    
    173000   4339.7894     -575.9214       0             -522.63002      11764.057      1337.1881    
    174000   4066.9601     -570.95865      0             -521.01754     -3464.1686      1416.6175    
    175000   4095.7848     -577.5051       0             -527.21003     -639.716        1413.7939    
    176000   4400.9937     -574.49739      0             -520.45445     -16346.149      1381.5681    
    177000   4220.6029     -571.25171      0             -519.42391     -23556.632      1399.4397    
    178000   3702.211      -575.20136      0             -529.73927      1025.0771      1374.4861    
    179000   4281.4329     -572.6794       0             -520.10463      17557.728      1461.982     
    180000   3550.4544     -573.13994      0             -529.54138     -43073.566      1507.8794    
    181000   3862.9238     -568.30597      0             -520.87038     -7629.9119      1468.9418    
    182000   4052.947      -570.93292      0             -521.16389     -26538.12       1493.7491    
    183000   3921.6311     -570.48653      0             -522.33003     -11152.518      1410.58      
    184000   4056.3833     -574.09096      0             -524.27973     -32759.41       1433.4752    
    185000   4262.8133     -577.36932      0             -525.02319     -29300.306      1424.5365    
    186000   3568.3067     -577.99727      0             -534.17948     -46864.164      1404.0573    
    187000   4120.8822     -571.84271      0             -521.23946     -9984.5722      1405.7251    
    188000   3970.0081     -578.17045      0             -529.41989      44620.173      1364.2679    
    189000   4197.4258     -575.17504      0             -523.63185      31254.465      1419.051     
    190000   4495.9557     -570.78351      0             -515.57446      29314.546      1438.398     
    191000   4005.4849     -577.77749      0             -528.59128      28122.843      1431.2903    
    192000   4774.7277     -571.98829      0             -513.356       -19138.274      1422.7046    
    193000   4681.1281     -577.05226      0             -519.56935     -18995.925      1458.3792    
    194000   3711.9993     -575.45108      0             -529.86879     -17959.044      1375.7017    
    195000   4248.8083     -570.82893      0             -518.65478     -19031.379      1420.5803    
    196000   3693.1166     -574.91167      0             -529.56126      49510.489      1414.9606    
    197000   4512.9736     -580.65659      0             -525.23856     -17267.274      1411.0472    
    198000   3752.3742     -571.94541      0             -525.86733      13963.654      1419.6809    
    199000   3891.376      -584.01744      0             -536.23245     -4616.4163      1400.2474    
    200000   4096.9001     -585.42401      0             -535.11524      2435.6919      1386.7929    
    201000   4116.6328     -576.62484      0             -526.07377     -42946.338      1377.0079    
    202000   3336.3197     -581.52165      0             -540.5526       14510.686      1345.6705    
    203000   4085.8665     -571.06406      0             -520.89079      17174.875      1394.8295    
    204000   4180.1678     -582.19414      0             -530.86287     -63.201888      1333.2473    
    205000   3586.5049     -573.2139       0             -529.17264     -23143.23       1372.6572    
    206000   3904.2428     -572.47533      0             -524.53234      14410.971      1324.4226    
    207000   3762.7635     -578.97392      0             -532.76826      80671.706      1251.954     
    208000   3585.0557     -575.19889      0             -531.17543      83943.733      1275.6596    
    209000   3514.1245     -572.21437      0             -529.06193      4311.1497      1321.8903    
    210000   4033.3251     -577.11823      0             -527.59016     -7268.6754      1282.8745    
    211000   4071.8972     -574.61881      0             -524.61708     -45794.882      1282.2834    
    212000   4031.4931     -572.27825      0             -522.77267      31830.534      1308.2417    
    213000   3949.0888     -578.95998      0             -530.4663      -16037.511      1322.1705    
    214000   4575.6099     -578.18546      0             -521.99828      51063.405      1251.7596    
    215000   3384.792      -571.16722      0             -529.60295     -24057.514      1277.2973    
    216000   3496.1619     -575.04044      0             -532.10857     -1379.5633      1277.1292    
    217000   3793.0908     -576.66881      0             -530.09074      16795.695      1309.3701    
    218000   3236.1494     -582.86896      0             -543.12998      29087.193      1318.2891    
    219000   4161.3312     -576.61828      0             -525.51832     -32251.071      1370.8406    
    220000   4013.7575     -584.88544      0             -535.59765      1524.7815      1354.3169    
    221000   4500.6538     -577.07132      0             -521.80458     -22251.657      1386.2571    
    222000   3580.8022     -573.52757      0             -529.55635     -53587.838      1352.7849    
    223000   3540.9242     -574.55701      0             -531.07548     -21846.031      1375.7958    
    224000   4340.87       -576.43961      0             -523.13497     -13696.432      1359.5629    
    225000   3722.6261     -579.27975      0             -533.56697     -29535.623      1345.3526    
    226000   4399.0769     -575.61648      0             -521.59708      55437.368      1330.0817    
    227000   4453.945      -583.56551      0             -528.87234      22325.556      1343.6612    
    228000   4919.7422     -571.10856      0             -510.69553      26413.36       1383.4429    
    229000   4293.5836     -572.34707      0             -519.62309      16485.8        1351.9234    
    230000   3476.0135     -576.3624       0             -533.67795     -3035.6336      1417.0753    
    231000   4217.6358     -572.60544      0             -520.81408     -3302.6859      1377.5662    
    232000   3923.0426     -573.25479      0             -525.08095      72182.195      1366.6467    
    233000   4905.1746     -578.91844      0             -518.6843       8082.6768      1401.8881    
    234000   4078.6838     -578.68156      0             -528.5965      -16252.142      1397.6999    
    235000   3568.8686     -570.84677      0             -527.02209      965.39862      1379.3949    
    236000   3842.4696     -570.40121      0             -523.21678      23261.015      1390.5558    
    237000   3861.1944     -577.07806      0             -529.66369      13908.486      1403.0788    
    238000   4274.7132     -575.74905      0             -523.2568      -20629.844      1466.3338    
    239000   4462.389      -578.33269      0             -523.53583     -27017.897      1427.9213    
    240000   3883.6088     -575.78653      0             -528.09692     -27494.497      1447.9456    
Loop time of 6.55117 on 1 procs for 80000 steps with 96 atoms

Performance: 1055.079 ns/day, 0.023 hours/ns, 12211.562 timesteps/s, 1.172 Matom-step/s
99.4% CPU use with 1 MPI tasks x no OpenMP threads

MPI task timing breakdown:
Section |  min time  |  avg time  |  max time  |%varavg| %total
---------------------------------------------------------------
Pair    | 5.4861     | 5.4861     | 5.4861     |   0.0 | 83.74
Bond    | 0.0024546  | 0.0024546  | 0.0024546  |   0.0 |  0.04
Neigh   | 0.38476    | 0.38476    | 0.38476    |   0.0 |  5.87
Comm    | 0.20594    | 0.20594    | 0.20594    |   0.0 |  3.14
Output  | 0.010047   | 0.010047   | 0.010047   |   0.0 |  0.15
Modify  | 0.43007    | 0.43007    | 0.43007    |   0.0 |  6.56
Other   |            | 0.03178    |            |       |  0.49

Nlocal:             96 ave          96 max          96 min
Histogram: 1 0 0 0 0 0 0 0 0 0
Nghost:            512 ave         512 max         512 min
Histogram: 1 0 0 0 0 0 0 0 0 0
Neighs:              0 ave           0 max           0 min
Histogram: 1 0 0 0 0 0 0 0 0 0
FullNghs:         2896 ave        2896 max        2896 min
Histogram: 1 0 0 0 0 0 0 0 0 0

Total # of neighbors = 2896
Ave neighs/atom = 30.166667
Ave special neighs/atom = 0
Neighbor list builds = 3044
Dangerous builds = 0

fix npt1 all npt temp 4000 3000 0.1 iso 0 0  1
run 80000
Per MPI rank memory allocation (min/avg/max) = 8.549 | 8.549 | 8.549 Mbytes
   Step          Temp          E_pair         E_mol          TotEng         Press          Volume    
    240000   3883.6088     -575.78653      0             -528.09692     -27494.497      1447.9456    
    241000   3237.2445     -574.7845       0             -535.03206     -33911.415      1424.1271    
    242000   4188.5063     -571.93712      0             -520.50347     -1947.1445      1386.1936    
    243000   4272.8183     -570.93774      0             -518.46875      9245.5265      1404.8981    
    244000   4320.3133     -574.70606      0             -521.65384     -8058.8591      1439.308     
    245000   4817.8777     -565.81728      0             -506.65512      25209.803      1471.307     
    246000   3507.6929     -571.19559      0             -528.12213      34620.487      1386.4474    
    247000   3439.369      -585.52942      0             -543.29496      6719.7329      1345.7604    
    248000   4423.7528     -573.52459      0             -519.20217      88674.244      1353.5232    
    249000   3910.1739     -569.38779      0             -521.37197      11055.165      1318.2829    
    250000   3679.624      -570.91011      0             -525.72538     -2900.2395      1411.8468    
    251000   3573.4217     -571.6228       0             -527.7422      -28848.518      1375.4408    
    252000   3767.3272     -567.72123      0             -521.45953      17408.192      1496.1708    
    253000   3658.3024     -572.19618      0             -527.27328     -19877.074      1423.838     
    254000   4707.6842     -568.45127      0             -510.64226     -21631.855      1501.4043    
    255000   3858.7042     -575.4807       0             -528.09692     -9641.105       1472.6203    
    256000   3547.8988     -580.78063      0             -537.21345      56148.347      1402.5381    
    257000   3868.4355     -572.90786      0             -525.40458     -48765.804      1430.7748    
    258000   3379.7849     -570.96922      0             -529.46643     -9874.4396      1361.5351    
    259000   3383.0817     -580.04246      0             -538.49919     -30362.105      1345.2677    
    260000   4244.3121     -579.82379      0             -527.70485      47287.93       1358.2027    
    261000   3794.3769     -577.08163      0             -530.48777      35507.839      1395.0151    
    262000   4117.8253     -570.19333      0             -519.62761      23747.895      1336.1748    
    263000   3698.0819     -583.80619      0             -538.39481      61716.903      1476.2466    
    264000   4339.2025     -580.79793      0             -527.51377     -1152.3368      1473.8638    
    265000   3138.4475     -569.63447      0             -531.09523     -25981.01       1414.6113    
    266000   3519.2945     -579.58342      0             -536.36749     -6317.6262      1423.5701    
    267000   3890.9056     -572.74425      0             -524.96505      44526.631      1440.3916    
    268000   3413.3135     -578.40617      0             -536.49165      34675.821      1422.178     
    269000   3900.6819     -585.83229      0             -537.93303      1802.5108      1419.5128    
    270000   3568.6339     -575.74755      0             -531.92575     -45432.795      1388.7534    
    271000   4061.635      -584.28376      0             -534.40804      28164.757      1410.8153    
    272000   3769.514      -581.37148      0             -535.08292      26950.646      1472.3082    
    273000   3261.9902     -578.22403      0             -538.16772     -5886.5153      1462.201     
    274000   2894.4354     -580.67584      0             -545.133        33465.082      1424.9218    
    275000   3560.5328     -578.65459      0             -534.93226     -38425.605      1512.0248    
    276000   3560.8        -579.77483      0             -536.04922      25774.219      1467.5242    
    277000   3587.6319     -583.76049      0             -539.70539      31495.325      1445.4722    
    278000   3359.7217     -587.5201       0             -546.26368      41279.632      1438.2598    
    279000   3440.3916     -578.33842      0             -536.0914       52297.907      1417.4035    
    280000   3657.0133     -579.18976      0             -534.28269      5141.3303      1442.3724    
    281000   3955.8981     -580.51594      0             -531.93864      4867.0272      1458.4841    
    282000   3315.5412     -585.26953      0             -544.55563      21346.755      1494.1787    
    283000   3158.8125     -587.25938      0             -548.47007      19713.227      1423.7629    
    284000   3972.3419     -576.08511      0             -527.30589      10728.818      1470.3266    
    285000   3141.506      -580.2816       0             -541.7048      -49095.053      1496.2886    
    286000   3381.6501     -586.95319      0             -545.42749      6620.8295      1443.9254    
    287000   3618.0021     -587.6608       0             -543.23277      356.84928      1462.1995    
    288000   2998.0277     -591.11835      0             -554.30343      8019.4179      1427.4104    
    289000   3708.7207     -588.60628      0             -543.06425     -34224.368      1439.592     
    290000   3171.8124     -583.58107      0             -544.63212     -20505.909      1456.7647    
    291000   3190.0204     -589.20062      0             -550.02808      33084.533      1466.112     
    292000   3466.7198     -583.99898      0             -541.42865      13611.984      1465.473     
    293000   3880.5923     -585.60044      0             -537.94788     -24375.767      1462.22      
    294000   3176.3828     -583.99092      0             -544.98585     -28512.634      1458.0008    
    295000   3524.5665     -590.36045      0             -547.07978     -557.44263      1458.0052    
    296000   3390.2705     -589.70184      0             -548.07029     -29011.179      1414.2142    
    297000   3508.6904     -588.95116      0             -545.86545      14768.171      1401.3745    
    298000   3505.5635     -587.72811      0             -544.68079     -7631.3922      1396.259     
    299000   3530.6802     -593.20003      0             -549.84428      28931.483      1448.707     
    300000   2831.9532     -582.06494      0             -547.28937     -4061.4895      1476.2128    
    301000   3340.2722     -580.66978      0             -539.65219     -36555.074      1482.442     
    302000   3194.5859     -588.669        0             -549.4404       23440.582      1449.7936    
    303000   3404.2997     -582.1216       0             -540.31777      5935.7435      1434.798     
    304000   3094.3377     -589.83472      0             -551.83714     -33395.211      1436.1152    
    305000   3375.7655     -581.49059      0             -540.03716      10811.925      1396.4081    
    306000   3074.4015     -585.3834       0             -547.63063      15516.21       1389.3468    
    307000   3408.9135     -590.64781      0             -548.78733     -22094.349      1430.9314    
    308000   2991.217      -578.14566      0             -541.41437      16313.417      1385.1229    
    309000   3209.3263     -585.47295      0             -546.06334     -441.98224      1446.8009    
    310000   2681.6779     -577.09534      0             -544.16511     -27148.604      1425.7558    
    311000   3403.7321     -586.44426      0             -544.6474       477.90045      1340.8194    
    312000   3075.0726     -587.9544       0             -550.19339      17368.522      1418.5692    
    313000   3347.4015     -586.48518      0             -545.38005      39508.726      1410.2041    
    314000   2806.8904     -582.51597      0             -548.04816     -26000.471      1395.3353    
    315000   2902.3773     -582.36753      0             -546.72717     -24367.097      1352.7481    
    316000   2894.9882     -594.10411      0             -558.55449      11386.147      1346.2786    
    317000   3083.0014     -584.16807      0             -546.3097       63619.156      1376.4367    
    318000   3375.5071     -586.15482      0             -544.70455      31411.317      1363.2848    
    319000   3220.4277     -590.74769      0             -551.20176     -2618.6417      1430.4802    
    320000   2980.3545     -590.01786      0             -553.41996     -7276.5008      1418.162     
Loop time of 6.32828 on 1 procs for 80000 steps with 96 atoms

Performance: 1092.241 ns/day, 0.022 hours/ns, 12641.675 timesteps/s, 1.214 Matom-step/s
99.2% CPU use with 1 MPI tasks x no OpenMP threads

MPI task timing breakdown:
Section |  min time  |  avg time  |  max time  |%varavg| %total
---------------------------------------------------------------
Pair    | 5.3043     | 5.3043     | 5.3043     |   0.0 | 83.82
Bond    | 0.0023968  | 0.0023968  | 0.0023968  |   0.0 |  0.04
Neigh   | 0.34881    | 0.34881    | 0.34881    |   0.0 |  5.51
Comm    | 0.20043    | 0.20043    | 0.20043    |   0.0 |  3.17
Output  | 0.01066    | 0.01066    | 0.01066    |   0.0 |  0.17
Modify  | 0.43078    | 0.43078    | 0.43078    |   0.0 |  6.81
Other   |            | 0.03086    |            |       |  0.49

Nlocal:             96 ave          96 max          96 min
Histogram: 1 0 0 0 0 0 0 0 0 0
Nghost:            518 ave         518 max         518 min
Histogram: 1 0 0 0 0 0 0 0 0 0
Neighs:              0 ave           0 max           0 min
Histogram: 1 0 0 0 0 0 0 0 0 0
FullNghs:         3020 ave        3020 max        3020 min
Histogram: 1 0 0 0 0 0 0 0 0 0

Total # of neighbors = 3020
Ave neighs/atom = 31.458333
Ave special neighs/atom = 0
Neighbor list builds = 2803
Dangerous builds = 0

fix npt1 all npt temp 3000 3000 0.1 iso 0 0 1
run 80000
Per MPI rank memory allocation (min/avg/max) = 8.549 | 8.549 | 8.549 Mbytes
   Step          Temp          E_pair         E_mol          TotEng         Press          Volume    
    320000   2980.3545     -590.01786      0             -553.41996     -7276.5008      1418.162     
    321000   2965.1184     -580.40233      0             -543.99152      38354.903      1387.7021    
    322000   3047.9102     -590.30059      0             -552.87313     -12370.407      1388.5999    
    323000   3031.565      -585.44584      0             -548.21909     -22037.631      1413.2843    
    324000   3015.3072     -583.04876      0             -546.02165     -14850.916      1439.7748    
    325000   3266.1935     -590.47216      0             -550.36423      10181.605      1466.7114    
    326000   3030.6965     -592.83464      0             -555.61856     -21691.36       1461.7918    
    327000   3622.31       -588.49364      0             -544.01271      25813.348      1452.4563    
    328000   2760.407      -589.1834       0             -555.28639      5077.5212      1432.8497    
    329000   3364.553      -590.85284      0             -549.53709     -5310.6254      1423.8724    
    330000   2470.5632     -584.73721      0             -554.3994       31547.785      1444.366     
    331000   3526.014      -589.87679      0             -546.57835     -27278.025      1442.6343    
    332000   3033.8783     -589.33214      0             -552.07699     -27694.69       1447.469     
    333000   2552.2937     -589.07619      0             -557.73476     -41181.572      1461.253     
    334000   2898.6137     -588.43057      0             -552.83643     -2330.2149      1437.9167    
    335000   3288.5306     -588.19753      0             -547.81531      25766.209      1407.1906    
    336000   2718.7441     -588.43189      0             -555.04649     -41433.799      1442.5609    
    337000   2650.6141     -587.36683      0             -554.81805      18706.131      1411.0686    
    338000   3893.4974     -590.41185      0             -542.60082      2320.7817      1421.4356    
    339000   3247.9474     -589.69116      0             -549.80729      28593.416      1478.1609    
    340000   3084.7159     -592.20052      0             -554.32109      24034.051      1439.2126    
    341000   3115.3763     -595.21971      0             -556.96378      17571.94       1410.4549    
    342000   3016.0396     -589.87957      0             -552.84346      12486.781      1414.9778    
    343000   2756.84       -589.29279      0             -555.43959      40053.795      1457.9596    
    344000   3217.0738     -589.22478      0             -549.72003      2112.7075      1473.6197    
    345000   2874.8548     -592.9012       0             -557.59881     -28527.196      1477.8427    
    346000   2887.8275     -586.13678      0             -550.67509     -15436.154      1437.9429    
    347000   2728.6893     -592.34701      0             -558.83949      24625.309      1458.005     
    348000   3116.1585     -586.06977      0             -547.80424      14960.157      1437.2714    
    349000   2811.1255     -583.19136      0             -548.67154      19435.425      1423.1237    
    350000   2969.188      -589.42762      0             -552.96684      2272.828       1444.5133    
    351000   2619.2118     -586.12594      0             -553.96277     -18401.384      1441.9501    
    352000   2963.2125     -588.52791      0             -552.14051      66630.364      1432.1286    
    353000   2982.986      -590.33414      0             -553.70393     -8764.5967      1427.0188    
    354000   2956.7083     -590.47512      0             -554.16759     -7318.8128      1421.4477    
    355000   2925.3477     -596.02019      0             -560.09775      18299.335      1414.8385    
    356000   2693.6226     -585.67713      0             -552.60021      7133.2455      1397.9889    
    357000   2951.6029     -587.83522      0             -551.59038     -8883.7028      1409.811     
    358000   3020.2182     -590.1826       0             -553.09518     -38518.699      1456.1856    
    359000   3041.0726     -585.43212      0             -548.08862      887.106        1455.6566    
    360000   2800.3856     -589.13009      0             -554.74215     -10358.325      1469.2148    
    361000   2791.6191     -588.32989      0             -554.04961     -13735.691      1433.2688    
    362000   3138.6589     -588.64762      0             -550.10579      9876.5761      1401.9961    
    363000   2983.8241     -594.95474      0             -558.31423      37326.95       1387.2104    
    364000   2995.2036     -591.61168      0             -554.83144      24802.458      1394.4751    
    365000   2848.1866     -590.54951      0             -555.57459     -34738.628      1440.7721    
    366000   3099.5297     -589.66322      0             -551.60189     -21114.171      1458.9001    
    367000   2877.1807     -593.84918      0             -558.51823     -581.80629      1428.2757    
    368000   3574.8707     -582.90044      0             -539.00205      14781.299      1425.1924    
    369000   2874.4349     -590.18156      0             -554.88432     -8806.5351      1437.9047    
    370000   2584.9915     -584.14496      0             -552.40201     -8704.4713      1452.8296    
    371000   3068.0717     -592.09399      0             -554.41895     -24741.17       1518.686     
    372000   3303.8789     -591.89229      0             -551.3216      -1705.316       1440.8836    
    373000   3023.1224     -590.09568      0             -552.9726       18565.704      1391.8743    
    374000   3152.9173     -594.55746      0             -555.84053      21009.05       1467.2069    
    375000   2702.1152     -583.10182      0             -549.92062      103.76654      1485.6432    
    376000   3466.3755     -591.33237      0             -548.76627      9833.9878      1431.2805    
    377000   3261.7471     -595.05429      0             -555.00097     -15976.5        1422.0075    
    378000   2786.133      -586.32543      0             -552.11251      22118.842      1435.1149    
    379000   3543.3773     -586.42464      0             -542.91298      2151.8735      1471.0194    
    380000   2871.6077     -581.74128      0             -546.47876     -9163.9449      1508.0928    
    381000   2526.683      -583.04066      0             -552.01371     -44021.564      1488.9572    
    382000   3165.8022     -589.73596      0             -550.86082     -1125.9308      1422.3829    
    383000   3444.9642     -593.76271      0             -551.45954     -3788.4313      1395.3447    
    384000   2769.479      -592.65197      0             -558.64356     -5129.5127      1402.01      
    385000   3087.2223     -589.62803      0             -551.71783     -29527.335      1449.8552    
    386000   3267.6111     -592.35352      0             -552.22819      69341.576      1396.9193    
    387000   3194.2285     -583.76556      0             -544.54135     -12276.361      1468.1371    
    388000   3214.3912     -587.31438      0             -547.84257      11527.794      1468.4681    
    389000   2548.2482     -590.43395      0             -559.14219     -26153.46       1429.4479    
    390000   2904.2696     -587.1218       0             -551.4582       25218.243      1441.4851    
    391000   2469.9192     -596.05041      0             -565.72051      14405.143      1434.5437    
    392000   3210.2154     -585.83028      0             -546.40975     -14247.421      1438.3203    
    393000   3169.7488     -585.6282       0             -546.7046      -28974.116      1399.7571    
    394000   2967.0273     -594.24327      0             -557.80902      12359.52       1349.762     
    395000   3059.0208     -586.92505      0             -549.36115      23317.404      1364.675     
    396000   3100.7974     -590.36526      0             -552.28835      18419.053      1320.817     
    397000   3132.0589     -591.42962      0             -552.96883     -9483.5364      1368.4669    
    398000   3143.4202     -586.86963      0             -548.26933      29934.758      1372.6013    
    399000   2739.7701     -587.65434      0             -554.01075     -3586.0569      1338.5401    
    400000   2893.5828     -585.88545      0             -550.35308     -9736.0312      1319.6168    
Loop time of 6.08332 on 1 procs for 80000 steps with 96 atoms

Performance: 1136.221 ns/day, 0.021 hours/ns, 13150.705 timesteps/s, 1.262 Matom-step/s
99.3% CPU use with 1 MPI tasks x no OpenMP threads

MPI task timing breakdown:
Section |  min time  |  avg time  |  max time  |%varavg| %total
---------------------------------------------------------------
Pair    | 5.117      | 5.117      | 5.117      |   0.0 | 84.11
Bond    | 0.0022974  | 0.0022974  | 0.0022974  |   0.0 |  0.04
Neigh   | 0.31499    | 0.31499    | 0.31499    |   0.0 |  5.18
Comm    | 0.19725    | 0.19725    | 0.19725    |   0.0 |  3.24
Output  | 0.0081246  | 0.0081246  | 0.0081246  |   0.0 |  0.13
Modify  | 0.41405    | 0.41405    | 0.41405    |   0.0 |  6.81
Other   |            | 0.02963    |            |       |  0.49

Nlocal:             96 ave          96 max          96 min
Histogram: 1 0 0 0 0 0 0 0 0 0
Nghost:            556 ave         556 max         556 min
Histogram: 1 0 0 0 0 0 0 0 0 0
Neighs:              0 ave           0 max           0 min
Histogram: 1 0 0 0 0 0 0 0 0 0
FullNghs:         3134 ave        3134 max        3134 min
Histogram: 1 0 0 0 0 0 0 0 0 0

Total # of neighbors = 3134
Ave neighs/atom = 32.645833
Ave special neighs/atom = 0
Neighbor list builds = 2544
Dangerous builds = 0

fix npt1 all npt temp 3000 2000 0.1 iso 0 0 1
run 80000
Per MPI rank memory allocation (min/avg/max) = 8.549 | 8.549 | 8.549 Mbytes
   Step          Temp          E_pair         E_mol          TotEng         Press          Volume    
    400000   2893.5828     -585.88545      0             -550.35308     -9736.0312      1319.6168    
    401000   3032.9481     -589.73724      0             -552.49351     -4166.8052      1378.0214    
    402000   3024.4817     -589.80456      0             -552.66479      27522.425      1382.1849    
    403000   3685.9297     -595.29617      0             -550.03401     -19915.265      1342.5775    
    404000   3132.5143     -593.25134      0             -554.78496     -16028.484      1392.1146    
    405000   2897.7769     -593.90588      0             -558.32201     -41255.136      1345.9414    
    406000   2897.4088     -585.02031      0             -549.44096      17664.003      1297.7261    
    407000   3012.1736     -589.47875      0             -552.49012      4070.366       1327.2692    
    408000   3064.1911     -590.08613      0             -552.45874     -59802.548      1453.2771    
    409000   3398.4084     -588.09218      0             -546.3607      -11046.463      1383.7005    
    410000   2813.5841     -590.48606      0             -555.93605      12108.075      1347.1112    
    411000   2545.8615     -598.23643      0             -566.97398      27608.283      1311.0491    
    412000   3116.5149     -592.37168      0             -554.10177      8499.3195      1366.8211    
    413000   2520.9777     -589.20805      0             -558.25117     -48781.627      1387.5135    
    414000   2878.6144     -598.93183      0             -563.58327     -23112.589      1320.9283    
    415000   2673.8352     -586.12551      0             -553.29158      26220.506      1293.7177    
    416000   2483.9224     -595.29082      0             -564.78896     -14326.156      1364.5885    
    417000   2717.2095     -592.29486      0             -558.92831      17339.373      1371.8228    
    418000   3324.373      -593.97527      0             -553.15292     -46708.563      1400.138     
    419000   2433.7702     -590.50948      0             -560.62348     -29592.822      1393.0451    
    420000   3135.9401     -587.84236      0             -549.33391     -2160.6722      1326.4219    
    421000   2790.9082     -589.8197       0             -555.54814     -34381.193      1368.3511    
    422000   2501.4252     -588.42162      0             -557.70483     -14214.484      1405.1836    
    423000   2538.1634     -594.37816      0             -563.21024     -18286.356      1308.5879    
    424000   3039.9848     -591.56002      0             -554.22988      15058.965      1272.3567    
    425000   2427.0621     -596.32842      0             -566.5248      -12704.821      1290.2476    
    426000   2444.1878     -597.32325      0             -567.30932      7386.4264      1278.222     
    427000   2743.7615     -600.0474       0             -566.35479     -20506.629      1312.0427    
    428000   2606.1466     -593.75191      0             -561.74917     -15694.609      1368.9083    
    429000   2565.0452     -591.6659       0             -560.16788     -20935.735      1408.1478    
    430000   2671.0299     -597.0887       0             -564.28922     -15969.484      1360.1662    
    431000   2530.5099     -594.28251      0             -563.20857      34261.462      1373.6293    
    432000   2206.1245     -594.47836      0             -567.38778      16293.658      1398.4536    
    433000   2766.1575     -601.30316      0             -567.33554      13504.606      1329.2674    
    434000   2435.8216     -594.42268      0             -564.51149     -9355.4721      1310.2614    
    435000   2708.9718     -595.32312      0             -562.05772      16913.925      1338.1298    
    436000   2435.5351     -595.99988      0             -566.09221     -2670.1252      1349.7053    
    437000   2682.2506     -596.66381      0             -563.72654     -7136.1672      1371.8073    
    438000   2658.931      -595.81704      0             -563.16613      24201.8        1330.6893    
    439000   2627.6162     -599.87347      0             -567.60709     -16815.002      1343.511     
    440000   2584.924      -594.469        0             -562.72688     -9122.6295      1335.0543    
    441000   2362.665      -600.00868      0             -570.99583      10567.467      1316.2871    
    442000   2558.0185     -597.31355      0             -565.90181      16582.578      1306.9592    
    443000   2519.4193     -598.38211      0             -567.44436     -9646.9949      1349.548     
    444000   2372.0614     -599.41024      0             -570.282       -16575.534      1321.5048    
    445000   2270.9499     -598.84087      0             -570.95425      8833.8799      1309.8454    
    446000   2487.8547     -600.66619      0             -570.11605     -2132.7369      1332.8746    
    447000   2260.7658     -604.72452      0             -576.96296      35537.047      1296.0843    
    448000   2810.5838     -602.44009      0             -567.92692      10217.106      1288.5843    
    449000   2229.2649     -604.41165      0             -577.03692      11771.675      1343.3375    
    450000   2389.0838     -597.61272      0             -568.27546     -14794.773      1359.3247    
    451000   2354.3215     -598.92679      0             -570.01639     -14446.892      1368.6882    
    452000   2746.3377     -598.06926      0             -564.34502     -23223.984      1374.2001    
    453000   2186.3709     -596.73193      0             -569.88392      21565.136      1341.0438    
    454000   2243.5647     -599.44109      0             -571.89075     -22405.642      1385.8809    
    455000   2541.2818     -597.90565      0             -566.69944      22532.724      1343.6918    
    456000   1903.9992     -602.14539      0             -578.76483     -21454.328      1349.1022    
    457000   2330.903      -598.96794      0             -570.34511      23409.981      1308.7271    
    458000   2226.1409     -597.16517      0             -569.8288       12337.351      1303.9385    
    459000   2070.7251     -601.57753      0             -576.14961     -2203.3042      1353.9041    
    460000   2170.8834     -598.73061      0             -572.07278      8313.6383      1313.7072    
    461000   2126.4846     -599.7555       0             -573.64287     -10149.124      1322.7205    
    462000   2490.5014     -602.03022      0             -571.44758     -33851.7        1321.3531    
    463000   1903.6151     -600.37935      0             -577.00351      4964.023       1316.8257    
    464000   2240.3422     -601.10902      0             -573.59826     -20902.359      1346.1814    
    465000   2212.1501     -600.19493      0             -573.03036     -2208.5626      1331.6551    
    466000   2253.3852     -603.76755      0             -576.09663     -12914.215      1349.3417    
    467000   2163.2111     -600.8091       0             -574.24549     -14127.066      1326.5857    
    468000   1755.94       -601.46595      0             -579.90351     -7147.3414      1311.6234    
    469000   2060.9503     -600.84977      0             -575.54189     -37789.624      1349.6147    
    470000   2286.0982     -603.46697      0             -575.39433     -15978.899      1333.189     
    471000   2571.4321     -602.25412      0             -570.67767      36996.68       1283.5327    
    472000   2202.1324     -605.01717      0             -577.97561     -12802.907      1332.7222    
    473000   1855.0841     -604.30846      0             -581.52856     -2460.4407      1342.2924    
    474000   2216.2284     -603.90934      0             -576.69469     -687.13688      1320.9151    
    475000   2501.8255     -606.60401      0             -575.88231      6226.2546      1299.6598    
    476000   1873.8406     -600.93746      0             -577.92723      5657.8877      1322.9909    
    477000   2036.4714     -600.93901      0             -575.93172     -13346.756      1381.6475    
    478000   2305.9337     -602.5794       0             -574.26319     -30828.224      1357.5823    
    479000   1918.4253     -604.66617      0             -581.10846     -977.19012      1309.2816    
    480000   2030.0777     -603.76417      0             -578.8354      -35986.6        1335.3025    
Loop time of 6.34727 on 1 procs for 80000 steps with 96 atoms

Performance: 1088.972 ns/day, 0.022 hours/ns, 12603.845 timesteps/s, 1.210 Matom-step/s
99.5% CPU use with 1 MPI tasks x no OpenMP threads

MPI task timing breakdown:
Section |  min time  |  avg time  |  max time  |%varavg| %total
---------------------------------------------------------------
Pair    | 5.3925     | 5.3925     | 5.3925     |   0.0 | 84.96
Bond    | 0.0024466  | 0.0024466  | 0.0024466  |   0.0 |  0.04
Neigh   | 0.27648    | 0.27648    | 0.27648    |   0.0 |  4.36
Comm    | 0.20611    | 0.20611    | 0.20611    |   0.0 |  3.25
Output  | 0.0093604  | 0.0093604  | 0.0093604  |   0.0 |  0.15
Modify  | 0.42999    | 0.42999    | 0.42999    |   0.0 |  6.77
Other   |            | 0.03041    |            |       |  0.48

Nlocal:             96 ave          96 max          96 min
Histogram: 1 0 0 0 0 0 0 0 0 0
Nghost:            554 ave         554 max         554 min
Histogram: 1 0 0 0 0 0 0 0 0 0
Neighs:              0 ave           0 max           0 min
Histogram: 1 0 0 0 0 0 0 0 0 0
FullNghs:         3164 ave        3164 max        3164 min
Histogram: 1 0 0 0 0 0 0 0 0 0

Total # of neighbors = 3164
Ave neighs/atom = 32.958333
Ave special neighs/atom = 0
Neighbor list builds = 2188
Dangerous builds = 0

fix npt1 all npt temp 2000 2000 0.1 iso 0 0 1
run 80000
Per MPI rank memory allocation (min/avg/max) = 8.549 | 8.549 | 8.549 Mbytes
   Step          Temp          E_pair         E_mol          TotEng         Press          Volume    
    480000   2030.0777     -603.76417      0             -578.8354      -35986.6        1335.3025    
    481000   1885.7766     -604.77557      0             -581.61877     -3373.1544      1307.7396    
    482000   1913.6079     -602.48955      0             -578.99099     -4907.4692      1328.8521    
    483000   2068.6544     -604.67491      0             -579.27242      10046.14       1247.2991    
    484000   1824.0218     -607.53329      0             -585.13483     -9279.0065      1340.5912    
    485000   2057.7561     -603.90668      0             -578.63802      10723.014      1299.2859    
    486000   1621.5273     -603.24237      0             -583.33048     -32803.917      1328.7778    
    487000   1827.6044     -601.28644      0             -578.84398     -35353.77       1323.879     
    488000   1796.1906     -609.62149      0             -587.56478      16082.426      1270.072     
    489000   2113.0575     -599.48848      0             -573.54074     -4564.0415      1361.5211    
    490000   1946.6499     -602.16637      0             -578.26207     -9649.8334      1330.7126    
    491000   2105.7869     -604.85044      0             -578.99198     -10505.333      1305.4637    
    492000   1906.1615     -604.57375      0             -581.16664      13210.419      1304.7544    
    493000   1698.0248     -595.3103       0             -574.45904     -9425.8162      1335.56      
    494000   2106.432      -606.6944       0             -580.82802     -2686.7081      1309.4818    
    495000   2123.9669     -599.69387      0             -573.61217      4326.0723      1304.4343    
    496000   2032.7466     -603.73634      0             -578.77479      42297.941      1282.5953    
    497000   1955.0483     -605.26306      0             -581.25563     -5775.1341      1333.5123    
    498000   2246.9972     -606.49173      0             -578.89925      4005.8089      1286.8253    
    499000   2040.0409     -606.64713      0             -581.59601     -26880.656      1344.855     
    500000   2293.8998     -605.90696      0             -577.73853      19742.996      1306.7371    
    501000   1880.8356     -602.56033      0             -579.46421      7152.7389      1259.5099    
    502000   1916.165      -601.17423      0             -577.64427     -50100.992      1350.8508    
    503000   1907.7302     -607.55955      0             -584.13317     -25610.319      1290.5477    
    504000   2047.392      -604.36967      0             -579.22829      5221.5188      1309.011     
    505000   1984.3171     -604.62322      0             -580.25637     -25626.476      1300.1013    
    506000   1656.6851     -604.57515      0             -584.23153     -1902.1362      1297.4937    
    507000   2292.9923     -604.03903      0             -575.88174     -9140.8215      1366.732     
    508000   2085.6323     -608.61001      0             -582.99904      26628.046      1270.9636    
    509000   1946.5185     -601.97154      0             -578.06885      754.86662      1303.6622    
    510000   1634.2246     -604.82369      0             -584.75588     -43698.77       1308.3187    
    511000   2292.908      -605.7592       0             -577.60295      3105.6852      1293.5868    
    512000   2003.2189     -607.40972      0             -582.81077      28825.911      1261.3627    
    513000   1756.0652     -599.89527      0             -578.33129     -26213.322      1346.1966    
    514000   1955.2568     -602.09496      0             -578.08497     -2579.9177      1291.0535    
    515000   2078.1718     -602.2209       0             -576.70154      20241.19       1286.8629    
    516000   1966.4988     -603.12575      0             -578.9777      -8850.9243      1338.3915    
    517000   1825.2282     -607.45658      0             -585.0433      -11520.183      1297.696     
    518000   2189.0291     -604.40237      0             -577.52172      16233.218      1284.8003    
    519000   1982.9036     -606.91507      0             -582.56558     -5525.3568      1312.8299    
    520000   2055.0996     -605.72968      0             -580.49364      7710.6094      1289.4354    
    521000   1887.7204     -603.74558      0             -580.56492     -324.55464      1294.8641    
    522000   2189.6839     -602.04926      0             -575.16057      16904.575      1265.3184    
    523000   1989.8456     -604.57507      0             -580.14034     -34284.151      1320.1315    
    524000   1672.2907     -607.22189      0             -586.68664     -15741.746      1299.2798    
    525000   2155.332      -605.00165      0             -578.53479     -3292.6207      1304.57      
    526000   2022.962      -600.32916      0             -575.48777     -20048.364      1276.2028    
    527000   2150.7329     -606.68549      0             -580.27511     -822.75971      1305.5689    
    528000   2146.3341     -606.28445      0             -579.92809     -4727.9168      1265.8358    
    529000   1885.1916     -607.8405       0             -584.69089     -14820.331      1319.009     
    530000   2358.8118     -604.40988      0             -575.44435     -17452.795      1304.2695    
    531000   2093.3754     -603.72704      0             -578.02099      8327.3433      1273.525     
    532000   1818.8951     -605.28703      0             -582.95152      33519.92       1279.643     
    533000   2064.0575     -602.15986      0             -576.81383     -11801.825      1337.8204    
    534000   1821.0994     -605.56431      0             -583.20173      34192.326      1250.0141    
    535000   2070.9144     -601.75616      0             -576.32592     -23907.714      1310.1428    
    536000   1853.2033     -603.92296      0             -581.16615     -24475.543      1296.0316    
    537000   1941.2897     -607.84307      0             -584.00458     -33196.11       1305.9812    
    538000   1833.6968     -605.46963      0             -582.95236      1279.4121      1271.873     
    539000   2357.2151     -603.93617      0             -574.99024     -11980.015      1328.1997    
    540000   2184.7843     -607.66458      0             -580.83605      38517.92       1286.1924    
    541000   1951.5712     -604.14819      0             -580.18346      45964.995      1301.6454    
    542000   2098.9967     -602.5082       0             -576.73312     -44251.236      1347.2748    
    543000   1881.8368     -604.51463      0             -581.40621     -7766.9365      1283.6434    
    544000   2212.3648     -604.58713      0             -577.41993     -11454.456      1319.625     
    545000   1695.4302     -606.77227      0             -585.95287      17335.97       1252.0595    
    546000   2009.9699     -603.62364      0             -578.94179     -25404.145      1309.1647    
    547000   2152.8502     -606.36505      0             -579.92866     -2349.5695      1309.3411    
    548000   2317.2526     -604.72418      0             -576.26899      46172.974      1279.306     
    549000   2329.9463     -603.72831      0             -575.11724      8084.6408      1281.5872    
    550000   1896.8276     -607.45297      0             -584.16047     -17828.607      1290.6618    
    551000   2212.8768     -603.18502      0             -576.01153     -10456.603      1308.9726    
    552000   2309.4268     -606.13125      0             -577.77215      10356.575      1271.4225    
    553000   2235.7752     -605.28283      0             -577.82815      21167.597      1298.3035    
    554000   1615.0479     -608.01704      0             -588.18472     -1495.5943      1278.6344    
    555000   2115.0671     -604.61473      0             -578.64231      5332.4392      1282.2455    
    556000   1814.0104     -606.7811       0             -584.50557      10026.595      1253.7739    
    557000   1661.5498     -601.77184      0             -581.36849     -11018.507      1330.1704    
    558000   2072.7448     -603.94131      0             -578.4886       1679.2701      1269.7635    
    559000   2183.9145     -600.63919      0             -573.82135     -18512.961      1332.0329    
    560000   2123.889      -607.54363      0             -581.46288     -669.58261      1289.8679    
Loop time of 6.38438 on 1 procs for 80000 steps with 96 atoms

Performance: 1082.642 ns/day, 0.022 hours/ns, 12530.576 timesteps/s, 1.203 Matom-step/s
98.8% CPU use with 1 MPI tasks x no OpenMP threads

MPI task timing breakdown:
Section |  min time  |  avg time  |  max time  |%varavg| %total
---------------------------------------------------------------
Pair    | 5.4389     | 5.4389     | 5.4389     |   0.0 | 85.19
Bond    | 0.0024478  | 0.0024478  | 0.0024478  |   0.0 |  0.04
Neigh   | 0.23884    | 0.23884    | 0.23884    |   0.0 |  3.74
Comm    | 0.20436    | 0.20436    | 0.20436    |   0.0 |  3.20
Output  | 0.015159   | 0.015159   | 0.015159   |   0.0 |  0.24
Modify  | 0.45545    | 0.45545    | 0.45545    |   0.0 |  7.13
Other   |            | 0.02922    |            |       |  0.46

Nlocal:             96 ave          96 max          96 min
Histogram: 1 0 0 0 0 0 0 0 0 0
Nghost:            550 ave         550 max         550 min
Histogram: 1 0 0 0 0 0 0 0 0 0
Neighs:              0 ave           0 max           0 min
Histogram: 1 0 0 0 0 0 0 0 0 0
FullNghs:         3214 ave        3214 max        3214 min
Histogram: 1 0 0 0 0 0 0 0 0 0

Total # of neighbors = 3214
Ave neighs/atom = 33.479167
Ave special neighs/atom = 0
Neighbor list builds = 1852
Dangerous builds = 0

fix npt1 all npt temp 2000 1000 0.1 iso 0 0 1
run 80000
Per MPI rank memory allocation (min/avg/max) = 8.549 | 8.549 | 8.549 Mbytes
   Step          Temp          E_pair         E_mol          TotEng         Press          Volume    
    560000   2123.889      -607.54363      0             -581.46288     -669.58261      1289.8679    
    561000   1918.5943     -603.28472      0             -579.72493     -3667.0761      1313.3538    
    562000   1818.0594     -606.3776       0             -584.05235     -6916.3843      1294.257     
    563000   1905.9066     -603.26347      0             -579.85948     -8935.9224      1296.5419    
    564000   1852.1768     -603.71791      0             -580.97371     -419.24349      1298.9834    
    565000   1691.8568     -606.13964      0             -585.36412      33997.883      1268.1656    
    566000   1755.8755     -601.96964      0             -580.40799     -29316.623      1296.013     
    567000   1925.8829     -602.99864      0             -579.34935     -251.8157       1272.3046    
    568000   2013.5698     -605.9162       0             -581.19014     -8389.0111      1312.339     
    569000   2019.0498     -608.0988       0             -583.30544     -16853.435      1298.652     
    570000   1840.9299     -602.75213      0             -580.14603      13217.09       1278.0458    
    571000   1757.4559     -606.62998      0             -585.04893      34257.614      1273.5794    
    572000   2394.835      -608.69212      0             -579.28423     -39020.911      1301.5446    
    573000   1884.4012     -608.16909      0             -585.02918      5058.113       1250.8639    
    574000   1636.1034     -604.82453      0             -584.73365     -48354.145      1333.0978    
    575000   1831.8182     -607.82657      0             -585.33237      4784.0901      1263.5455    
    576000   1828.9735     -606.95583      0             -584.49656     -21798.495      1310.7481    
    577000   1707.5666     -610.63988      0             -589.67146      6480.9755      1266.7847    
    578000   1711.3124     -603.82457      0             -582.81014      6219.3201      1278.5277    
    579000   1810.2547     -610.87036      0             -588.64095      23737.544      1263.5368    
    580000   1726.2174     -611.98579      0             -590.78833     -10725.547      1284.0578    
    581000   1765.5628     -609.11591      0             -587.43531     -11463.734      1299.4741    
    582000   1729.3719     -607.99997      0             -586.76378      9662.1128      1252.9882    
    583000   1751.8663     -610.27175      0             -588.75934     -7335.6772      1274.0568    
    584000   1660.2068     -606.29508      0             -585.90822     -7679.3545      1294.8746    
    585000   1671.0688     -611.88332      0             -591.36308     -5803.4568      1268.5492    
    586000   1759.8419     -612.16339      0             -590.55304     -8299.6568      1289.8363    
    587000   1595.4361     -612.05571      0             -592.46421     -9435.8307      1276.6196    
    588000   1617.2069     -613.21421      0             -593.35537      8044.9961      1268.9756    
    589000   1346.4384     -606.77667      0             -590.24279     -23161.395      1291.898     
    590000   1457.035      -608.31552      0             -590.42355      19896.99       1259.8626    
    591000   1893.7537     -609.99137      0             -586.73661      563.96588      1289.1885    
    592000   1595.997      -611.36947      0             -591.77108      8234.1412      1259.7337    
    593000   1636.8836     -611.56527      0             -591.46481      14949.461      1263.4481    
    594000   1668.6868     -613.84052      0             -593.34952      4514.6709      1281.3691    
    595000   1595.3717     -614.44675      0             -594.85605     -9254.7508      1291.5945    
    596000   1546.4899     -611.86741      0             -592.87695     -6466.3873      1253.4831    
    597000   1486.8688     -608.76936      0             -590.51103     -37518.01       1284.3174    
    598000   1500.3208     -612.06617      0             -593.64266     -2959.814       1286.1458    
    599000   1782.8101     -614.02407      0             -592.13167      43834.134      1232.5075    
    600000   1559.5082     -612.62748      0             -593.47716      2487.3964      1278.2465    
    601000   1479.9734     -612.49839      0             -594.32474      8784.9047      1291.748     
    602000   1484.412      -608.38517      0             -590.15702      13719.62       1273.2118    
    603000   1450.0884     -612.44214      0             -594.63547     -48436.416      1331.1015    
    604000   1434.3666     -611.97382      0             -594.36021     -412.92036      1261.1996    
    605000   1265.6164     -612.9558       0             -597.41439      10610.958      1259.6176    
    606000   1315.8815     -613.92754      0             -597.76889     -20457.522      1303.2842    
    607000   1525.212      -613.60424      0             -594.87508      30047.618      1272.3844    
    608000   1314.6179     -615.53759      0             -599.39446      10912.183      1257.6032    
    609000   1300.949      -612.7432       0             -596.76792      8701.8877      1287.2358    
    610000   1442.3242     -613.36647      0             -595.65515     -2646.7618      1270.4956    
    611000   1297.0623     -612.20908      0             -596.28153      13768.415      1257.3054    
    612000   1587.1109     -614.48217      0             -594.9929      -3438.7776      1267.1227    
    613000   1139.0939     -614.93777      0             -600.95003     -30741.164      1267.6582    
    614000   1181.1759     -610.80394      0             -596.29944      4018.2389      1297.9023    
    615000   1205.9954     -614.36365      0             -599.55437     -3463.9093      1274.2692    
    616000   1465.1794     -613.19119      0             -595.19921      812.10438      1264.185     
    617000   1294.6202     -613.37069      0             -597.47313     -313.53655      1278.3923    
    618000   1183.6001     -616.74037      0             -602.2061       11213.487      1251.7939    
    619000   1332.5143     -615.08235      0             -598.71946     -3544.4687      1291.5999    
    620000   1246.6573     -615.8667       0             -600.5581       23940.315      1243.9272    
    621000   1408.0089     -613.86397      0             -596.57402     -18582.219      1294.4666    
    622000   1238.7138     -616.69625      0             -601.4852      -20058.97       1275.0591    
    623000   1364.8804     -614.59536      0             -597.83502      15200.466      1257.7387    
    624000   1165.3413     -615.90851      0             -601.59845     -6268.3543      1267.0639    
    625000   1146.8847     -615.63929      0             -601.55588     -13427.143      1286.8323    
    626000   1511.2488     -616.64811      0             -598.0904       15318.191      1265.2212    
    627000   1196.1262     -617.83898      0             -603.1509      -4274.5503      1258.2584    
    628000   1263.021      -617.00127      0             -601.49173      4291.8833      1270.2773    
    629000   1192.9257     -617.026        0             -602.37722      4893.1201      1260.0135    
    630000   1071.6644     -616.9494       0             -603.78967      23444.225      1246.8697    
[...]
Histogram: 1 0 0 0 0 0 0 0 0 0
Neighs:              0 ave           0 max           0 min
Histogram: 1 0 0 0 0 0 0 0 0 0
FullNghs:         3260 ave        3260 max        3260 min
Histogram: 1 0 0 0 0 0 0 0 0 0

Total # of neighbors = 3260
Ave neighs/atom = 33.958333
Ave special neighs/atom = 0
Neighbor list builds = 115
Dangerous builds = 0


fix npt1 all npt temp 500 10 0.1 iso 0 0 1
run 80000
Per MPI rank memory allocation (min/avg/max) = 8.549 | 8.549 | 8.549 Mbytes
   Step          Temp          E_pair         E_mol          TotEng         Press          Volume    
    880000   517.84234     -624.54893      0             -618.18997     -4431.6017      1246.4213    
    881000   510.26894     -624.73189      0             -618.46594     -11262.439      1265.9636    
    882000   502.6806      -625.7162       0             -619.54343     -7633.4981      1233.6066    
    883000   513.24681     -625.23743      0             -618.93491      8042.2109      1244.1855    
    884000   471.52133     -624.22001      0             -618.42986     -140.90452      1238.8226    
    885000   551.72075     -625.76619      0             -618.99121      23440.108      1235.0083    
    886000   406.21978     -625.48757      0             -620.49931      15491.963      1238.0956    
    887000   445.54746     -625.94645      0             -620.47526      5502.0123      1240.5582    
    888000   471.46557     -625.23456      0             -619.4451       12866.026      1241.0133    
    889000   430.25824     -626.43246      0             -621.14901     -3265.9845      1241.8132    
    890000   469.24311     -625.89886      0             -620.13668      4062.6373      1244.7111    
    891000   439.05034     -625.99134      0             -620.59992      9355.562       1236.623     
    892000   425.5802      -625.84228      0             -620.61628     -9462.6942      1258.2524    
    893000   372.2513      -626.59431      0             -622.02317      5043.331       1250.2407    
    894000   369.72139     -625.95773      0             -621.41766      18509.684      1233.9039    
    895000   412.99899     -625.93146      0             -620.85995      3274.8688      1231.7507    
    896000   398.99676     -626.24177      0             -621.3422       11049.915      1242.7651    
    897000   413.82223     -626.14499      0             -621.06337      5508.3753      1237.1094    
    898000   390.63779     -626.53241      0             -621.73549     -5867.5152      1243.3952    
    899000   390.44112     -626.01072      0             -621.21621      1786.0051      1233.8423    
    900000   388.40488     -627.03834      0             -622.26884      1719.6954      1235.6685    
    901000   408.07027     -626.73476      0             -621.72378     -7705.8693      1253.7517    
    902000   349.95737     -626.79466      0             -622.49728     -881.56098      1244.4941    
    903000   460.97873     -626.43901      0             -620.77832      16754.53       1230.714     
    904000   369.01712     -627.34073      0             -622.8093      -9790.1788      1252.5429    
    905000   388.6877      -627.40464      0             -622.63166      3313.7307      1244.3532    
    906000   358.07781     -626.14         0             -621.7429      -4219.8408      1254.0204    
    907000   336.0532      -627.38668      0             -623.26004      4593.543       1237.1548    
    908000   343.34357     -626.94485      0             -622.72869      631.47943      1249.2414    
    909000   289.15758     -627.16563      0             -623.61486     -10022.382      1248.1733    
    910000   305.03098     -627.7767       0             -624.031       -6154.7537      1236.2624    
    911000   293.93363     -627.35764      0             -623.74821     -377.25598      1244.9434    
    912000   302.79025     -627.25341      0             -623.53523      8728.8794      1239.6341    
    913000   277.86459     -627.96599      0             -624.5539      -2214.1867      1229.7693    
    914000   283.945       -627.27293      0             -623.78616     -13965.4        1250.3893    
    915000   256.23726     -627.59258      0             -624.44606      13336.499      1243.8878    
    916000   299.61002     -627.86398      0             -624.18485      705.78427      1240.0194    
    917000   296.73445     -628.03011      0             -624.3863       7699.2079      1233.0777    
    918000   261.70256     -628.06981      0             -624.85617      9120.6894      1228.4579    
    919000   244.76772     -628.11619      0             -625.11051     -6256.0208      1244.6939    
    920000   238.76585     -628.13214      0             -625.20016     -10554.232      1254.9114    
    921000   257.87744     -628.6835       0             -625.51684      3832.5743      1238.6516    
    922000   262.97259     -628.49981      0             -625.27058     -7772.4177      1248.3095    
    923000   225.66662     -628.72968      0             -625.95856     -5716.8173      1245.7808    
    924000   201.32413     -628.44781      0             -625.9756       6121.2932      1233.9509    
    925000   221.20829     -628.33067      0             -625.6143       3424.9589      1237.0232    
    926000   216.37263     -628.69667      0             -626.03968     -3510.396       1247.9426    
    927000   213.45129     -628.53456      0             -625.91344     -4567.3362      1231.5903    
    928000   242.99405     -628.95861      0             -625.97471     -1458.4204      1242.2517    
    929000   170.83219     -629.02452      0             -626.92675     -7227.9832      1239.1636    
    930000   193.55867     -628.83599      0             -626.45915      8101.8335      1240.0272    
    931000   154.74191     -628.93815      0             -627.03797     -7192.5068      1243.2738    
    932000   190.50591     -629.11942      0             -626.78007      5220.0603      1226.1336    
    933000   222.2531      -629.24983      0             -626.52063     -6917.4677      1249.8809    
    934000   153.82267     -629.24969      0             -627.3608      -5075.1802      1243.7088    
    935000   175.91362     -629.11746      0             -626.95729      6709.0903      1234.5277    
    936000   156.65105     -629.48287      0             -627.55924      708.67424      1235.3275    
    937000   169.9109      -629.71493      0             -627.62847     -1331.1173      1240.4981    
    938000   136.62103     -629.37535      0             -627.69768      5335.199       1226.7316    
    939000   147.00978     -629.83178      0             -628.02654      10053.243      1229.0388    
    940000   143.20032     -629.48172      0             -627.72326      3446.6108      1229.9211    
    941000   124.31281     -629.90886      0             -628.38233     -2914.1648      1230.6195    
    942000   142.04464     -629.98642      0             -628.24216      3147.8065      1226.7007    
    943000   117.40472     -629.98739      0             -628.54569     -2642.8298      1241.7186    
    944000   94.426402     -629.89604      0             -628.73651     -2229.7854      1241.935     
    945000   109.85637     -630.02496      0             -628.67595     -10295.908      1244.9604    
    946000   88.441052     -630.23882      0             -629.15279     -5073.2123      1238.4739    
    947000   91.817172     -630.25767      0             -629.13018     -3748.2738      1235.4649    
    948000   99.605669     -630.32404      0             -629.10091      9824.4076      1227.5688    
    949000   77.592865     -630.52192      0             -629.5691       3229.9811      1230.9638    
    950000   76.380411     -630.42329      0             -629.48536      612.81026      1234.2363    
    951000   74.67782      -630.57255      0             -629.65552      3674.9945      1232.9099    
    952000   57.340177     -630.6763       0             -629.97217     -1994.5868      1232.9375    
    953000   58.409549     -630.72469      0             -630.00743      183.53661      1235.8126    
    954000   49.149571     -630.73822      0             -630.13467      3547.3828      1233.3483    
    955000   38.395013     -630.84541      0             -630.37393     -5718.4702      1241.7415    
    956000   35.331508     -630.90605      0             -630.47219      4754.6664      1227.483     
    957000   29.447044     -631.02548      0             -630.66388      2965.371       1236.332     
    958000   21.42059      -631.08697      0             -630.82394     -2126.3797      1233.3835    
    959000   16.273243     -631.19856      0             -630.99873      2191.9023      1232.8133    
    960000   9.8470536     -631.26944      0             -631.14852     -941.65486      1231.0863    
Loop time of 5.84487 on 1 procs for 80000 steps with 96 atoms

Performance: 1182.575 ns/day, 0.020 hours/ns, 13687.206 timesteps/s, 1.314 Matom-step/s
99.2% CPU use with 1 MPI tasks x no OpenMP threads

MPI task timing breakdown:
Section |  min time  |  avg time  |  max time  |%varavg| %total
---------------------------------------------------------------
Pair    | 5.1743     | 5.1743     | 5.1743     |   0.0 | 88.53
Bond    | 0.0025555  | 0.0025555  | 0.0025555  |   0.0 |  0.04
Neigh   | 0.0044438  | 0.0044438  | 0.0044438  |   0.0 |  0.08
Comm    | 0.19439    | 0.19439    | 0.19439    |   0.0 |  3.33
Output  | 0.0093138  | 0.0093138  | 0.0093138  |   0.0 |  0.16
Modify  | 0.43424    | 0.43424    | 0.43424    |   0.0 |  7.43
Other   |            | 0.0256     |            |       |  0.44

Nlocal:             96 ave          96 max          96 min
Histogram: 1 0 0 0 0 0 0 0 0 0
Nghost:            580 ave         580 max         580 min
Histogram: 1 0 0 0 0 0 0 0 0 0
Neighs:              0 ave           0 max           0 min
Histogram: 1 0 0 0 0 0 0 0 0 0
FullNghs:         3330 ave        3330 max        3330 min
Histogram: 1 0 0 0 0 0 0 0 0 0

Total # of neighbors = 3330
Ave neighs/atom = 34.6875
Ave special neighs/atom = 0
Neighbor list builds = 34
Dangerous builds = 0

fix npt1 all npt temp 10 10 0.1 iso 0 0 1
run 80000
Per MPI rank memory allocation (min/avg/max) = 8.549 | 8.549 | 8.549 Mbytes
   Step          Temp          E_pair         E_mol          TotEng         Press          Volume    
    960000   9.8470536     -631.26944      0             -631.14852     -941.65486      1231.0863    
    961000   8.3649214     -631.28488      0             -631.18216      1072.6177      1232.9043    
    962000   11.19729      -631.28605      0             -631.14855     -90.598756      1231.6368    
    963000   9.4871259     -631.27882      0             -631.16232     -1547.497       1231.3427    
    964000   10.488045     -631.27646      0             -631.14767     -1002.1662      1231.0419    
    965000   10.617575     -631.27103      0             -631.14065      1585.8254      1231.74      
    966000   10.557203     -631.29122      0             -631.16158      3714.9396      1230.1409    
    967000   9.4266573     -631.27894      0             -631.16319      1161.4222      1229.4259    
    968000   9.1300687     -631.26689      0             -631.15478     -3192.0378      1233.7124    
    969000   9.2114214     -631.28642      0             -631.17331     -306.2212       1231.5938    
    970000   10.75449      -631.26629      0             -631.13423     -1906.493       1233.9844    
    971000   8.7190212     -631.29083      0             -631.18376      1423.6715      1230.6684    
    972000   9.5870825     -631.25991      0             -631.14219      1468.2427      1229.469     
    973000   9.9928043     -631.28201      0             -631.1593       901.50554      1231.3235    
    974000   10.282865     -631.27265      0             -631.14638     -218.94901      1232.8668    
    975000   9.2437917     -631.26972      0             -631.1562      -2268.638       1232.0792    
    976000   9.3368444     -631.25996      0             -631.14531     -1061.9516      1231.9437    
    977000   10.185209     -631.29225      0             -631.16718     -2022.0933      1231.8049    
    978000   9.4692401     -631.26911      0             -631.15283      5359.5794      1230.2658    
    979000   8.3359369     -631.26463      0             -631.16227      946.74756      1232.6279    
    980000   9.8406682     -631.26819      0             -631.14735      108.5472       1232.0055    
    981000   10.301088     -631.28606      0             -631.15957      3188.9552      1229.1389    
    982000   9.8136732     -631.26921      0             -631.1487       1750.843       1230.6877    
    983000   9.5706549     -631.29405      0             -631.17653     -2985.1084      1232.4347    
    984000   9.3455761     -631.27005      0             -631.15529     -886.69478      1231.3498    
    985000   10.964202     -631.25933      0             -631.12469      2807.0524      1231.9479    
    986000   10.564237     -631.28786      0             -631.15814     -891.08152      1231.0484    
    987000   9.9730045     -631.27146      0             -631.14899     -1427.4178      1231.8586    
    988000   8.9724907     -631.27179      0             -631.16161     -2133.3141      1232.5143    
    989000   10.55318      -631.27354      0             -631.14395      16.551259      1232.9174    
    990000   10.350326     -631.26847      0             -631.14137     -958.94751      1232.9217    
    991000   8.9174422     -631.28399      0             -631.17449      1289.4115      1229.4569    
    992000   9.1980372     -631.26411      0             -631.15116      2002.4937      1230.5129    
    993000   7.7581234     -631.28934      0             -631.19408      542.30494      1229.5424    
    994000   10.4543       -631.27466      0             -631.14629     -814.85045      1233.2414    
    995000   10.11847      -631.28895      0             -631.1647       1226.325       1232.5996    
    996000   10.863017     -631.29428      0             -631.16089      3007.5556      1229.7521    
    997000   10.998689     -631.26923      0             -631.13417     -2459.1368      1233.5452    
    998000   9.0078166     -631.27852      0             -631.16791      33.208436      1230.1339    
    999000   9.3689864     -631.28251      0             -631.16746     -2473.8111      1232.2301    
   1000000   11.708617     -631.26578      0             -631.122        2382.3699      1229.6891    
   1001000   9.8399829     -631.26378      0             -631.14295     -2019.5791      1232.3456    
   1002000   9.6290251     -631.28661      0             -631.16836      997.70265      1229.0836    
   1003000   10.862916     -631.26045      0             -631.12706      455.99527      1231.1751    
   1004000   8.776041      -631.27371      0             -631.16595      436.06964      1230.4335    
   1005000   11.051748     -631.26767      0             -631.13196     -1302.815       1232.9155    
   1006000   9.4861419     -631.28306      0             -631.16658      498.21864      1230.7791    
   1007000   10.261543     -631.26201      0             -631.13601      566.09084      1233.0845    
   1008000   9.7176476     -631.27681      0             -631.15748     -1606.8259      1232.7854    
   1009000   9.5927694     -631.27298      0             -631.15518     -1315.6296      1231.2527    
   1010000   9.4814268     -631.2711       0             -631.15467      126.46943      1229.609     
   1011000   8.8077389     -631.27171      0             -631.16355      941.68423      1229.7937    
   1012000   9.8154165     -631.27039      0             -631.14986      1581.5388      1232.6902    
   1013000   9.3369639     -631.25485      0             -631.14019     -1610.8652      1232.3558    
   1014000   10.01145      -631.2735       0             -631.15056     -1170.5195      1232.4368    
   1015000   10.398833     -631.2882       0             -631.16051      397.40305      1230.6251    
   1016000   8.9257556     -631.27219      0             -631.16259     -1024.5882      1232.7764    
   1017000   8.8319734     -631.27004      0             -631.16158      4199.2656      1230.0846    
   1018000   10.641584     -631.27209      0             -631.14142      599.45036      1229.7523    
   1019000   10.498038     -631.26615      0             -631.13724     -398.4933       1233.1799    
   1020000   10.27852      -631.27757      0             -631.15135     -1819.4273      1233.2455    
   1021000   11.108095     -631.27049      0             -631.13409      724.96889      1231.3402    
   1022000   9.7524388     -631.27689      0             -631.15714      229.11432      1230.605     
   1023000   7.6265818     -631.29255      0             -631.1989      -1079.9872      1232.0809    
   1024000   8.8942936     -631.26016      0             -631.15094     -4512.8862      1235.2928    
   1025000   9.851467      -631.28654      0             -631.16557      1533.9929      1229.7469    
   1026000   10.291625     -631.27017      0             -631.14379     -2289.4098      1232.8814    
   1027000   9.2408101     -631.27262      0             -631.15915     -2407.4301      1232.1587    
   1028000   9.0729541     -631.28986      0             -631.17845     -221.1651       1233.6896    
   1029000   10.737433     -631.2701       0             -631.13824     -1321.7564      1232.1454    
   1030000   10.643291     -631.28395      0             -631.15326     -138.87365      1229.7847    
   1031000   9.3348553     -631.27506      0             -631.16043      3181.1447      1231.1632    
   1032000   9.7568248     -631.27092      0             -631.15111      1609.0008      1232.86      
   1033000   8.8494626     -631.28368      0             -631.17501      834.46638      1231.0797    
   1034000   10.320989     -631.26777      0             -631.14103     -363.79075      1230.8074    
   1035000   10.991967     -631.25188      0             -631.1169      -987.74103      1235.0382    
   1036000   8.4195547     -631.27009      0             -631.1667      -266.44611      1233.3724    
   1037000   11.290165     -631.26983      0             -631.13119     -1606.2764      1231.0992    
   1038000   8.5971095     -631.27547      0             -631.1699      -2326.8877      1231.7039    
   1039000   10.418113     -631.2708       0             -631.14287     -1011.6166      1232.8274    
   1040000   9.1080518     -631.25539      0             -631.14355     -1378.2988      1234.1851    
Loop time of 5.75953 on 1 procs for 80000 steps with 96 atoms

Performance: 1200.099 ns/day, 0.020 hours/ns, 13890.034 timesteps/s, 1.333 Matom-step/s
99.2% CPU use with 1 MPI tasks x no OpenMP threads

MPI task timing breakdown:
Section |  min time  |  avg time  |  max time  |%varavg| %total
---------------------------------------------------------------
Pair    | 5.0887     | 5.0887     | 5.0887     |   0.0 | 88.35
Bond    | 0.0024574  | 0.0024574  | 0.0024574  |   0.0 |  0.04
Neigh   | 0          | 0          | 0          |   0.0 |  0.00
Comm    | 0.1902     | 0.1902     | 0.1902     |   0.0 |  3.30
Output  | 0.010354   | 0.010354   | 0.010354   |   0.0 |  0.18
Modify  | 0.44268    | 0.44268    | 0.44268    |   0.0 |  7.69
Other   |            | 0.02511    |            |       |  0.44

Nlocal:             96 ave          96 max          96 min
Histogram: 1 0 0 0 0 0 0 0 0 0
Nghost:            572 ave         572 max         572 min
Histogram: 1 0 0 0 0 0 0 0 0 0
Neighs:              0 ave           0 max           0 min
Histogram: 1 0 0 0 0 0 0 0 0 0
FullNghs:         3372 ave        3372 max        3372 min
Histogram: 1 0 0 0 0 0 0 0 0 0

Total # of neighbors = 3372
Ave neighs/atom = 35.125
Ave special neighs/atom = 0
Neighbor list builds = 0
Dangerous builds = 0


write_data amorphousSiO.data
System init for write_data ...


Total wall time: 0:01:20
