96
 Atoms. Timestep: 0
2 0 7.95642 4.74695
2 4.63304 0 11.358
2 0 4.63304 4.74695
2 7.95642 0 11.358
2 0 4.63304 8.47514
2 7.95642 0 1.8641
2 0 7.95642 8.47514
2 4.63304 0 1.8641
2 10.7421 8.43088 6.61105
2 4.15858 10.7421 0
2 1.84736 4.15858 6.61105
2 8.43088 1.84736 0
2 1.84736 8.43088 6.61105
2 8.43088 10.7421 0
2 10.7421 4.15858 6.61105
2 4.15858 1.84736 0
2 10.5201 6.29473 5.04003
2 6.29473 10.5201 11.6511
2 2.06934 6.29473 5.04003
2 6.29473 2.06934 11.6511
2 2.06934 6.29473 8.18207
2 6.29473 2.06934 1.57102
2 10.5201 6.29473 8.18207
2 6.29473 10.5201 1.57102
2 10.1594 8.65935 9.20274
2 3.93011 10.1594 2.59169
2 2.43004 3.93011 9.20274
2 8.65935 2.43004 2.59169
2 2.43004 8.65935 9.20274
2 8.65935 10.1594 2.59169
2 10.1594 3.93011 9.20274
2 3.93011 2.43004 2.59169
2 2.43004 3.93011 4.01936
2 8.65935 2.43004 10.6304
2 10.1594 8.65935 4.01936
2 3.93011 10.1594 10.6304
2 10.1594 3.93011 4.01936
2 3.93011 2.43004 10.6304
2 2.43004 8.65935 4.01936
2 8.65935 10.1594 10.6304
2 0 10.703 0
2 1.88643 0 6.61105
2 0 1.88643 0
2 10.703 0 6.61105
2 0 0 1.872
2 0 0 8.48305
2 0 0 11.3501
2 0 0 4.73905
2 11.2706 2.31295 2.18973
2 10.2765 11.2706 8.80078
2 1.31887 10.2765 2.18973
2 2.31295 1.31887 8.80078
2 1.31887 2.31295 2.18973
2 2.31295 11.2706 8.80078
2 11.2706 10.2765 2.18973
2 10.2765 1.31887 8.80078
2 1.31887 10.2765 11.0324
2 2.31295 1.31887 4.42131
2 11.2706 2.31295 11.0324
2 10.2765 11.2706 4.42131
2 11.2706 10.2765 11.0324
2 10.2765 1.31887 4.42131
2 1.31887 2.31295 11.0324
2 2.31295 11.2706 4.42131
1 11.0086 7.83654 8.10972
1 4.75292 11.0086 1.49867
1 1.5809 4.75292 8.10972
1 7.83654 1.5809 1.49867
1 1.5809 7.83654 8.10972
1 7.83654 11.0086 1.49867
1 11.0086 4.75292 8.10972
1 4.75292 1.5809 1.49867
1 1.5809 4.75292 5.11238
1 7.83654 1.5809 11.7234
1 11.0086 7.83654 5.11238
1 4.75292 11.0086 11.7234
1 11.0086 4.75292 5.11238
1 4.75292 1.5809 11.7234
1 1.5809 7.83654 5.11238
1 7.83654 11.0086 11.7234
1 10.1088 10.1088 3.30552
1 2.48067 10.1088 9.91657
1 2.48067 2.48067 3.30552
1 10.1088 2.48067 9.91657
1 2.48067 10.1088 3.30552
1 10.1088 10.1088 9.91657
1 10.1088 2.48067 3.30552
1 2.48067 2.48067 9.91657
1 0 1.60471 1.57853
1 10.9848 0 8.18958
1 0 10.9848 1.57853
1 1.60471 0 8.18958
1 0 10.9848 11.6436
1 1.60471 0 5.03252
1 0 1.60471 11.6436
1 10.9848 0 5.03252
96
 Atoms. Timestep: 2000
2 12.0821 7.61127 4.15895
2 4.83888 -0.489112 12.4185
2 -0.295925 4.76253 5.02217
2 8.45566 12.7753 11.8386
2 1.10344 4.68618 8.89247
2 7.73415 12.2027 0.909418
2 0.26476 7.86416 8.90073
2 4.18137 0.0758183 2.13842
2 9.29899 7.44792 6.19283
2 3.67273 11.0685 -0.0357473
2 2.53646 4.41506 6.8041
2 8.51861 0.991408 0.5642
2 0.998672 7.63927 6.3777
2 7.71684 10.355 12.5048
2 12.0104 3.58758 7.11193
2 4.09678 1.74715 0.709915
2 10.982 6.1762 5.91163
2 5.9214 11.5693 10.7036
2 1.6362 6.52328 4.87644
2 6.64625 1.59577 12.9828
2 2.78025 6.27071 8.31091
2 6.29052 0.983102 2.65575
2 12.2197 5.4784 8.8872
2 5.98997 11.1493 0.930046
2 11.1596 8.81485 9.22827
2 3.15637 10.6769 2.33425
2 2.96701 3.7851 9.80504
2 8.71398 1.70373 2.68784
2 2.25183 9.44306 7.82629
2 8.74318 9.83418 1.45766
2 11.9709 3.38762 10.1405
2 3.4529 2.49815 3.38315
2 2.25064 3.51338 5.00669
2 9.0976 1.87639 11.2856
2 10.2447 8.95437 3.95935
2 3.36681 10.8885 10.0142
2 10.8561 3.50684 4.32825
2 3.97353 2.05601 11.5688
2 0.881157 9.07561 3.54057
2 9.34159 11.0259 9.84546
2 -0.336459 11.3044 12.9528
2 1.77715 0.0843062 5.79314
2 -0.0402326 1.85073 13.2433
2 10.3147 -0.0215627 6.58941
2 12.1665 0.242917 0.642348
2 -0.0603265 12.9496 7.97788
2 0.149447 -0.13301 11.1447
2 12.2783 12.1768 4.69819
2 11.0535 2.82814 1.76703
2 11.2068 11.8444 8.80742
2 0.897437 11.2463 1.07129
2 1.64737 0.91272 9.25178
2 0.552789 2.65861 2.54241
2 2.37837 12.1936 8.41378
2 10.8356 11.0924 1.87768
2 10.6552 1.37608 8.96778
2 0.901032 10.557 10.2144
2 0.916676 1.02297 4.209
2 11.1206 1.84326 11.6003
2 9.53614 11.2644 4.116
2 11.846 10.6922 11.1122
2 10.8107 0.74486 3.85031
2 1.00299 1.9543 11.1882
2 1.43134 11.1577 3.55704
1 11.9913 7.0028 9.48762
1 4.34581 11.7051 1.30495
1 2.67013 4.7456 8.36166
1 7.90163 0.639815 1.93784
1 1.88083 7.77041 7.88916
1 7.71548 10.4415 0.514256
1 12.7816 3.76183 8.70294
1 4.94849 1.87065 2.53165
1 1.34081 4.87887 5.65041
1 8.57554 1.20427 12.5992
1 10.8177 7.94784 5.29362
1 4.01237 11.3754 11.7758
1 11.4808 4.33163 5.68123
1 4.8505 1.38735 12.7359
1 0.750829 7.82858 4.68891
1 7.80229 11.4194 10.9582
1 9.9256 10.1716 2.83441
1 2.09523 10.5868 9.11584
1 1.69539 2.51116 3.81492
1 10.5346 2.48257 10.3044
1 1.70039 10.3213 2.22811
1 10.9498 10.2683 9.84421
1 10.2755 2.35603 3.21241
1 2.57591 2.47145 10.45
1 12.5431 1.98436 1.22293
1 11.2588 0.303497 8.05869
1 12.1747 11.6361 0.968455
1 1.60173 0.422068 7.60852
1 0.2277 11.3933 11.3505
1 0.746746 12.5359 4.59061
1 -0.395538 1.38061 11.7004
1 10.5623 12.5411 4.89876
96
 Atoms. Timestep: 4000
2 0.571049 8.06276 5.40692
2 4.51149 0.1526 11.7615
2 -0.122475 4.81366 6.05817
2 7.9654 10.0448 9.56633
2 12.2901 4.5086 9.15994
2 8.25253 0.544513 1.2124
2 12.4696 8.27082 8.17613
2 3.87787 12.2623 0.778694
2 9.52921 9.14123 7.97109
2 4.53968 10.3215 12.6059
2 1.60283 3.72216 7.5044
2 7.18145 2.20574 12.8916
2 2.27236 7.87723 6.81002
2 7.55632 11.4016 12.7065
2 10.6835 4.66966 7.03177
2 4.55135 1.75322 -0.0618461
2 10.8254 6.61451 4.72368
2 6.29565 10.2041 10.7936
2 1.72842 5.62951 5.04592
2 9.38122 11.4702 7.55944
2 1.7198 6.22483 8.71267
2 6.09184 1.47265 1.63571
2 10.2525 6.48626 9.07046
2 6.06023 11.3881 0.993344
2 11.4582 9.30078 9.64339
2 3.39202 9.95553 1.58979
2 2.18652 3.71584 9.569
2 8.80516 2.84851 1.85721
2 1.64479 9.12269 8.69575
2 8.57375 10.7751 2.16939
2 10.606 3.49008 9.93212
2 3.79697 1.74922 2.24677
2 2.33805 3.66702 3.92133
2 5.59467 3.25489 11.9615
2 10.653 9.18884 3.77892
2 3.48386 10.8358 10.5587
2 10.2605 4.10035 4.31249
2 4.26736 1.82777 10.7903
2 2.63333 8.62362 3.68672
2 9.37871 10.1174 11.0589
2 -0.133876 10.8514 0.278143
2 1.90733 12.2692 7.133
2 0.308898 2.3798 0.281109
2 10.4798 0.284756 6.33935
2 0.171483 0.0154289 1.38357
2 11.8322 0.700959 8.09965
2 0.417055 0.214361 12.2492
2 0.577708 0.133947 4.4717
2 11.6005 2.70576 2.25382
2 10.8051 12.1373 9.25503
2 0.488703 10.687 2.87459
2 1.84895 1.09469 8.50549
2 1.54398 2.27329 2.21025
2 0.980298 11.2649 9.16536
2 10.7653 10.9389 2.23073
2 9.3348 0.784306 9.09047
2 1.40477 10.4971 11.54
2 3.0015 1.24328 4.93407
2 11.9617 2.30706 12.1522
2 10.4612 11.8976 4.17759
2 11.6791 10.9438 11.2618
2 10.4534 1.33094 3.97105
2 1.89394 2.40335 11.5386
2 2.4467 11.146 4.50848
1 10.7196 8.38491 8.41945
1 4.629 10.5399 0.599416
1 1.02367 4.64287 8.77615
1 7.45459 2.12872 0.877675
1 1.12487 7.72834 8.15417
1 7.71545 11.6425 0.815418
1 10.6373 4.90391 8.75063
1 4.40148 0.727482 1.32893
1 1.73417 4.03749 5.71336
1 8.4585 10.1985 8.21905
1 11.7284 7.96911 4.8656
1 5.06964 11.3895 11.4226
1 11.208 5.05337 5.39907
1 5.46567 1.57951 11.8462
1 2.02128 7.34714 5.02283
1 7.87991 10.1115 11.5426
1 9.7353 10.6411 3.50145
1 2.00882 10.0986 10.0361
1 2.65896 2.20603 3.41546
1 10.547 2.76721 11.4062
1 2.20568 10.139 3.07741
1 10.411 10.9489 10.0427
1 9.93273 3.05382 3.06609
1 2.67106 2.09172 9.86737
1 0.0850046 1.68021 1.75497
1 10.2566 0.291475 7.94079
1 12.226 11.4413 2.07396
1 0.800511 -0.00997691 8.38358
1 0.431291 11.5305 12.3546
1 2.10118 -0.130725 5.32869
1 0.593372 1.87281 12.3003
1 11.6181 0.232517 4.86043
96
 Atoms. Timestep: 6000
2 0.223218 8.33071 4.67347
2 3.84742 1.55699 10.2155
2 0.503931 5.14991 4.76519
2 11.64 9.61516 5.20486
2 12.6779 4.44111 7.98753
2 8.12487 0.479018 2.32853
2 -0.120614 8.46346 8.58087
2 6.09045 9.02063 1.76279
2 10.8894 8.6801 7.76719
2 4.93831 2.9386 0.218266
2 2.38918 3.91288 6.5121
2 6.8963 0.888934 4.93795
2 1.88067 8.02137 6.67815
2 8.18475 11.8001 -0.0157238
2 10.8169 6.1174 6.46996
2 2.9764 5.02577 0.0764015
2 11.3255 6.1934 3.83885
2 6.31693 0.127461 11.3481
2 2.55133 6.2383 4.95268
2 11.8552 12.72 8.96323
2 0.802186 6.23535 7.9131
2 6.07119 2.79664 2.79021
2 11.115 6.16787 9.31946
2 6.47149 11.3298 2.34482
2 10.5331 8.85226 10.1831
2 4.07753 10.4999 3.46814
2 2.4772 3.89338 8.88054
2 8.70846 2.211 3.87771
2 2.00872 8.99176 9.17806
2 8.90926 11.1412 2.40062
2 10.5204 3.26899 9.77924
2 3.38297 2.15431 2.08315
2 2.02083 3.52582 3.65261
2 0.818021 2.28053 11.031
2 10.2983 8.64768 2.82529
2 3.08436 11.8989 11.0634
2 10.4267 3.84338 4.2012
2 2.4868 3.26617 11.7866
2 2.25088 8.76107 4.62155
2 8.15293 10.9405 11.0461
2 12.3863 10.3361 13.2061
2 1.35951 12.7627 6.53338
2 12.0337 1.24196 -0.189538
2 10.7296 11.0816 7.7096
2 0.238409 12.1355 1.71074
2 10.8219 0.0648938 6.97134
2 0.174608 12.0338 11.897
2 -0.138365 0.0529694 4.57576
2 11.3654 1.91345 2.4187
2 9.43883 11.1137 9.33658
2 1.59982 10.1837 2.16219
2 2.05371 1.19764 9.00492
2 1.11945 1.99511 2.00559
2 1.95518 11.6048 8.76339
2 12.0801 9.9669 1.86988
2 9.84215 1.14386 9.41086
2 0.837873 9.8632 10.5177
2 2.96054 0.415993 3.87213
2 11.3248 1.51928 11.1796
2 10.3004 11.2793 4.38781
2 11.0295 10.6966 11.0262
2 10.9244 1.00202 4.5669
2 -0.160479 0.553514 9.97027
2 1.60061 11.1859 4.68965
1 11.4536 7.83483 8.98226
1 5.0723 10.5106 2.27188
1 1.55292 4.53142 7.66618
1 7.23804 1.76306 3.33463
1 1.19667 8.06294 8.31815
1 7.99524 12.1108 1.46836
1 11.4881 4.63195 9.08291
1 5.00464 2.2286 1.4455
1 2.34077 4.53503 4.99996
1 10.8073 9.78174 6.6496
1 11.6257 7.60922 3.51489
1 4.40027 -0.0664947 11.1069
1 11.6419 4.90178 4.96029
1 3.67868 3.92433 12.6662
1 1.53246 7.66107 5.18153
1 7.48992 11.9628 12.1922
1 10.5703 10.1023 2.85611
1 2.12002 10.4673 10.0501
1 2.38026 2.01623 3.14808
1 9.80959 2.21986 10.6288
1 2.32453 10.1145 3.84896
1 9.3948 9.91961 10.58
1 10.0881 2.30539 3.35385
1 2.56168 2.63899 9.92628
1 12.444 1.2259 1.41742
1 10.3007 12.4208 8.55346
1 0.47251 10.5018 1.02701
1 2.39149 12.7176 7.78409
1 12.6391 10.6321 11.6483
1 1.38971 -0.118542 4.98234
1 0.00250796 0.96466 11.8963
1 11.1464 12.5403 5.29723
96
 Atoms. Timestep: 8000
2 0.385086 8.3098 4.07301
2 3.56404 12.4859 12.5295
2 0.330512 4.73801 4.68846
2 11.5443 8.13559 5.76261
2 0.261155 5.13214 7.2135
2 7.19999 0.227523 1.05
2 0.885057 7.23783 10.3771
2 4.95324 10.8877 0.904888
2 10.5819 8.70251 8.07727
2 1.7198 2.00622 0.939522
2 1.81386 4.62162 5.92659
2 7.22301 3.24347 2.33676
2 0.629167 8.57521 7.69558
2 8.04581 11.1364 13.0308
2 11.6312 3.71502 6.95317
2 2.53289 0.983472 12.6192
2 11.5813 5.8747 4.06482
2 5.94064 10.9767 12.4263
2 2.11135 6.56066 3.95456
2 12.7425 12.2096 8.13419
2 2.721 6.84158 8.2184
2 5.6171 1.71962 5.26339
2 11.149 6.06621 8.70301
2 6.9678 10.9115 1.98952
2 10.1234 8.28619 10.3423
2 4.66868 10.3997 3.85222
2 1.92305 3.90084 8.47669
2 8.95587 1.92783 2.54476
2 2.74493 9.12379 9.61716
2 9.04287 10.7898 2.41239
2 10.211 3.8253 9.30031
2 4.32369 2.92522 3.2423
2 1.77007 3.68576 2.95833
2 9.82606 2.01316 11.1999
2 10.6896 8.70957 3.78253
2 4.10835 10.7515 11.2829
2 10.4899 3.50877 4.2009
2 1.74349 2.90137 11.2371
2 3.39321 8.99594 3.38341
2 9.12441 10.6157 11.3837
2 12.3053 9.94909 -0.0365181
2 2.15322 0.0835604 6.63877
2 12.1941 1.08215 13.2727
2 11.3019 10.8078 7.37625
2 0.813326 12.6465 1.54465
2 10.9402 0.515812 6.69341
2 11.622 12.2307 11.8196
2 0.311034 0.230387 4.68462
2 11.4242 2.25271 1.54249
2 9.32597 11.3232 9.1493
2 1.9727 10.3014 2.88441
2 1.23461 1.4171 8.95442
2 3.75571 1.076 1.77908
2 2.05095 11.5728 8.92062
2 11.7576 10.7415 2.69003
2 7.72824 2.93955 9.65304
2 1.49855 11.1764 11.8855
2 1.97439 1.12443 3.27748
2 8.91981 4.68942 11.9449
2 11.1221 11.7521 4.25827
2 11.3629 10.151 11.0953
2 11.2603 0.948728 3.35995
2 0.0327121 4.20519 9.44965
2 2.12842 11.6723 4.58155
1 10.3587 7.39298 8.94911
1 5.50893 10.6771 2.43409
1 2.37282 5.37896 7.34304
1 7.63751 2.00968 1.24462
1 1.77853 7.86061 9.17712
1 8.09873 11.7398 1.12264
1 11.8439 4.54219 8.34702
1 6.1956 2.69581 3.54749
1 2.08877 4.76991 4.01136
1 12.084 9.02417 6.91093
1 11.5302 7.58125 4.23512
1 4.38727 11.1522 12.9429
1 11.5491 4.2152 5.06449
1 2.04985 2.39789 12.9244
1 1.76309 7.9455 3.20398
1 7.51936 10.2311 11.7423
1 10.3256 10.2819 3.31907
1 2.62604 10.5345 10.3777
1 2.85412 2.43172 2.45335
1 9.23524 3.31592 10.4344
1 2.97404 10.2931 4.26385
1 10.0513 10.115 10.2522
1 10.499 2.71074 2.82839
1 1.19421 3.0302 9.77085
1 0.1179 1.27382 1.29151
1 10.7571 12.4369 8.22661
1 0.531676 11.1982 2.39403
1 1.36864 -0.044857 8.07137
1 -0.174243 10.9156 12.2017
1 1.92441 0.366352 4.96224
1 10.9109 1.1171 12.1814
1 11.4066 0.224626 5.06125
96
 Atoms. Timestep: 10000
2 0.641673 7.3018 3.3638
2 4.22746 11.9866 0.557845
2 0.901663 3.95156 5.95062
2 11.0181 11.1256 7.59651
2 0.00212865 5.1212 8.04575
2 7.75001 12.1893 1.70829
2 2.484 5.8472 8.93632
2 5.86959 9.90828 12.4788
2 9.67782 8.29253 7.61182
2 1.92386 4.11171 0.645546
2 2.56979 3.52631 7.22289
2 7.38236 2.27274 3.16028
2 2.70057 7.35344 6.97056
2 9.01178 0.316998 12.5226
2 10.8882 3.70618 6.74628
2 1.45874 7.05196 1.39983
2 12.2553 5.65973 4.40542
2 6.27507 0.364845 11.2346
2 3.78843 3.12521 4.62371
2 0.314372 1.61074 9.84283
2 4.23052 7.59901 9.50572
2 5.14573 3.25198 4.25348
2 9.87491 5.86074 8.14154
2 8.09381 9.88878 12.883
2 8.35678 8.75417 9.508
2 7.47218 7.83692 0.358451
2 1.82043 3.78876 9.88634
2 9.64455 1.05904 2.56629
2 2.01729 9.17205 8.96767
2 8.95321 10.4244 1.81804
2 9.46223 3.54112 8.45628
2 5.45749 0.579485 4.79152
2 2.6756 1.11668 5.59771
2 7.44233 1.84239 9.70771
2 10.9033 8.68478 3.53874
2 6.69874 11.6022 0.0510323
2 11.95 3.47416 4.36878
2 12.5444 5.37475 12.7828
2 1.62647 9.28723 3.60698
2 7.99096 11.4713 10.9241
2 11.7945 10.0236 13.0766
2 0.781309 0.995972 6.70665
2 0.604536 1.10956 12.8952
2 12.5127 9.6325 7.85831
2 2.84954 1.84714 1.36817
2 10.3786 0.303593 6.69983
2 11.387 12.5413 11.4298
2 11.5687 12.4459 4.50947
2 0.331304 2.68943 2.12014
2 8.97931 11.0023 8.62485
2 1.89228 11.8176 2.15691
2 11.9801 3.0887 11.7875
2 3.21162 12.3765 3.70455
2 1.80643 12.0808 8.891
2 11.5309 10.2419 1.42872
2 9.08702 1.43397 7.94496
2 0.421232 10.4809 10.3245
2 4.69878 10.9175 5.94814
2 6.71428 3.30106 7.4748
2 9.67828 11.0406 4.02094
2 10.1747 10.3418 10.6018
2 1.05394 1.70518 4.66489
2 10.9679 4.37293 10.1025
2 0.736671 11.3798 4.47023
1 8.88729 7.17635 8.73977
1 7.11839 8.79621 12.0975
1 1.78961 4.5322 8.51599
1 8.04109 1.00308 2.41475
1 2.72526 7.30269 8.78494
1 8.61444 11.4398 0.527231
1 10.7475 4.63489 8.55584
1 6.28295 2.06327 4.71404
1 2.04173 2.69789 5.8834
1 10.9873 9.50523 7.75917
1 11.8496 7.43572 4.22187
1 5.46904 11.9693 12.0823
1 12.0521 4.29125 5.72597
1 1.30422 5.44782 0.546502
1 2.15467 7.67694 2.95335
1 8.10545 0.865462 11.0321
1 10.4024 10.1121 2.70701
1 0.981318 10.3639 8.81422
1 4.04298 12.2535 5.2296
1 7.79804 2.52429 8.30677
1 1.30841 10.8225 3.11501
1 8.71728 10.4402 9.9212
1 0.199256 2.41415 3.5755
1 12.1094 4.64533 11.4642
1 1.34314 2.33759 0.707449
1 9.82856 12.5112 8.14246
1 3.56756 0.270854 1.8966
1 1.05192 0.913266 8.42258
1 11.5768 10.6503 11.4133
1 0.421148 0.014828 5.45118
1 12.4444 1.1218 11.3222
1 9.87179 12.4997 5.11845
96
 Atoms. Timestep: 12000
2 1.32386 9.21314 4.39403
2 5.05875 1.93017 11.9084
2 1.65681 5.63758 5.78135
2 9.59978 9.42843 8.03004
2 11.9593 4.26702 8.02053
2 8.07839 1.43414 1.14697
2 2.61035 4.29072 9.60425
2 4.52602 11.0715 12.7345
2 9.80789 7.33934 8.07363
2 1.77404 3.6632 1.73896
2 2.64399 3.83855 7.44187
2 7.70688 4.12143 2.04838
2 4.68973 5.61721 11.759
2 7.96071 12.1295 11.6583
2 10.9744 5.74601 6.67707
2 1.86413 6.90486 0.62032
2 12.0853 7.01342 4.34919
2 6.11652 11.6394 10.4931
2 4.55616 4.16351 5.8425
2 2.29391 11.418 11.6464
2 2.71648 4.96114 12.0323
2 5.57489 3.8873 3.28712
2 9.06332 4.69201 7.33776
2 6.76541 10.3337 1.18246
2 6.53022 6.19236 7.78389
2 4.54845 11.1704 2.82341
2 0.497056 0.374188 10.4044
2 9.4636 2.38431 3.74021
2 2.34076 7.39492 10.4141
2 9.06933 11.0624 1.86319
2 9.44733 2.98958 8.28336
2 6.79538 6.55618 2.46223
2 3.09607 3.74494 3.98115
2 7.76454 0.876395 8.39203
2 10.617 9.17707 4.13936
2 6.15795 0.265048 0.355489
2 11.6789 4.01509 5.03861
2 11.7354 4.78869 12.499
2 3.70629 8.85934 1.61305
2 8.38799 10.4597 10.0307
2 1.54866 9.47873 12.43
2 1.72565 12.2555 8.10157
2 11.3624 1.88959 1.95374
2 11.336 8.14398 6.25448
2 5.78312 5.00038 12.4509
2 7.41515 10.0418 6.16185
2 11.4797 11.4882 12.805
2 2.50909 12.2206 5.39472
2 11.8859 2.30382 3.86422
2 8.77232 7.64855 11.5143
2 2.07022 0.574141 2.51904
2 10.8838 2.44709 11.3274
2 4.42117 2.82799 1.49871
2 3.03307 2.00478 9.60924
2 10.5711 9.26416 1.02557
2 9.42313 11.9254 6.80634
2 0.636407 8.33578 8.40019
2 4.26645 1.11771 4.01524
2 10.1481 3.00599 6.34097
2 7.85772 9.22608 3.07756
2 11.2098 9.19249 10.8334
2 11.3995 1.515 6.29078
2 10.9596 4.67501 9.62936
2 1.78087 10.8056 3.96024
1 8.39297 6.11 7.53742
1 4.98661 9.97226 1.45303
1 1.39777 3.72677 8.77195
1 8.71531 2.42801 2.13683
1 3.21856 5.84787 10.6485
1 7.81658 11.7729 0.944424
1 10.4739 4.1668 7.84362
1 6.53888 5.08778 2.71176
1 2.89421 4.27037 5.75479
1 10.9981 8.53732 7.86516
1 11.9844 8.51471 4.74037
1 5.11586 12.12 11.692
1 11.9681 5.76889 5.20638
1 1.50941 5.346 0.611449
1 2.31023 8.34401 1.00347
1 7.73739 12.0954 10.031
1 9.39569 9.57046 2.61729
1 1.99256 8.59457 9.07452
1 4.24761 2.7296 3.19757
1 9.12883 1.55251 7.27028
1 3.09336 11.7688 3.6738
1 9.28479 8.67088 10.296
1 10.6538 2.86601 4.72221
1 11.287 4.27898 11.1656
1 1.18555 2.26454 2.43613
1 8.67895 10.3778 6.95605
1 5.58602 3.38354 12.8199
1 2.22075 0.401443 9.81948
1 11.6645 9.81463 12.2573
1 0.983986 0.485915 6.59285
1 11.1126 1.35593 12.5996
1 7.27709 9.44735 4.37376
96
 Atoms. Timestep: 14000
2 0.909396 9.13349 3.43945
2 2.79461 1.0141 1.89443
2 3.0635 4.71981 6.81807
2 8.34795 9.97342 7.04665
2 2.27444 1.4384 10.4377
2 6.98561 11.707 1.90099
2 3.72257 3.525 9.03671
2 4.65631 9.22389 11.2151
2 9.06899 7.09342 6.45666
2 0.749142 5.50187 2.47364
2 2.88748 1.95072 7.68305
2 9.43995 3.18069 4.09761
2 4.16368 10.697 8.01352
2 7.38027 10.5747 12.1991
2 0.944954 4.90529 6.75518
2 2.1914 6.95879 11.1405
2 1.29481 6.35043 4.37216
2 6.21294 10.9458 10.1928
2 5.39248 5.42955 8.06495
2 10.6676 11.1366 9.16963
2 10.8536 7.48216 9.57544
2 6.61224 3.84255 3.81775
2 8.07927 4.99012 5.8201
2 5.6345 9.18746 1.75448
2 6.49043 6.42544 7.67161
2 4.30725 9.15157 3.31511
2 1.09385 10.9021 12.4358
2 11.2368 2.13674 3.99407
2 4.41552 8.26011 9.53881
2 7.73718 2.89732 0.972806
2 10.4619 2.908 8.60429
2 8.50917 6.11185 2.64013
2 5.33119 3.11894 6.41192
2 8.9566 11.3585 10.3291
2 10.2336 6.90621 3.69907
2 5.37282 11.8548 12.5102
2 2.04453 3.39124 5.08651
2 11.1701 5.31866 10.9069
2 3.01551 8.42667 0.652726
2 8.07062 9.02938 10.4905
2 1.31526 9.2014 10.3395
2 3.52531 11.393 11.0739
2 10.6754 3.56561 0.847574
2 10.8657 8.60222 5.4453
2 4.967 2.47863 1.68988
2 8.84117 0.746974 5.68749
2 9.36482 2.04158 10.8445
2 3.53713 10.3286 5.78985
2 2.24353 3.53498 3.01532
2 6.89333 9.11914 8.70194
2 3.76512 11.8884 3.23646
2 8.97925 4.54355 10.631
2 4.53468 3.66485 3.67842
2 1.55102 3.69564 9.83693
2 10.5014 8.83198 1.11499
2 8.49691 11.942 8.29579
2 10.79 9.22172 7.89429
2 5.40141 0.728738 4.67613
2 9.39239 4.99207 7.9037
2 7.93498 8.42262 2.34002
2 8.08854 6.37324 10.8265
2 10.917 2.32941 6.48726
2 9.00172 6.77986 8.79162
2 1.94377 0.749094 4.69168
1 8.19073 6.0289 7.20147
1 4.24565 8.41268 1.76425
1 2.2641 2.5777 9.18742
1 9.89606 1.93509 4.95419
1 5.22535 9.47803 8.40153
1 6.47189 1.88779 1.31991
1 10.573 4.08963 7.36969
1 8.11318 4.41869 3.80208
1 4.59159 4.00756 7.59871
1 9.62857 8.73258 6.47816
1 11.6264 7.80498 4.30136
1 4.94022 11.2008 11.0983
1 1.99361 4.86469 5.4932
1 1.8081 5.2332 10.734
1 2.9452 8.54289 10.857
1 7.75088 10.6601 10.6343
1 9.37724 7.55645 2.17139
1 11.063 9.16545 9.50347
1 5.63102 2.67281 4.52038
1 9.75404 1.2649 9.0401
1 4.11211 10.7328 4.22203
1 7.51393 7.89601 9.58108
1 1.46211 2.25302 3.91936
1 9.75254 5.75922 10.1887
1 0.518398 3.97342 1.98749
1 7.83779 11.515 6.84891
1 3.89861 3.73689 2.08999
1 2.07739 0.852122 12.1737
1 11.8549 9.58969 1.49122
1 3.45218 11.5661 6.91008
1 9.0414 3.22669 11.9602
1 7.55789 9.70544 1.83112
96
 Atoms. Timestep: 16000
2 1.45605 6.88461 4.23272
2 2.47383 10.7126 11.8975
2 4.89562 4.35134 7.37297
2 10.4405 10.2823 5.40634
2 11.5944 2.38779 11.1372
2 5.93058 10.4144 3.11551
2 3.59267 3.48032 8.68673
2 3.91473 9.51303 10.1912
2 10.0784 8.07685 6.59204
2 1.681 5.80852 1.83956
2 1.63432 10.2259 4.57725
2 9.05075 4.32513 4.06034
2 3.74218 8.71214 6.34847
2 6.28081 9.97585 11.5399
2 1.65093 3.4221 7.75081
2 3.18077 7.37221 11.6808
2 3.14864 6.1624 7.75777
2 6.15309 10.7693 9.35109
2 7.616 4.20346 6.84967
2 11.1356 11.6498 9.74349
2 9.63265 7.24375 11.1541
2 7.33701 3.521 2.51396
2 11.5067 6.67849 6.83402
2 4.6489 9.38885 2.02339
2 9.70976 5.38151 6.0948
2 3.63063 10.9561 2.86354
2 9.87366 9.17187 12.3409
2 11.0035 2.65828 5.08939
2 2.63824 8.15106 8.65588
2 6.08353 2.51921 11.8356
2 1.4742 4.23392 9.62181
2 8.72316 6.58539 1.99801
2 5.89895 5.02153 4.73095
2 8.71228 10.7919 9.95321
2 9.85841 10.0808 2.76085
2 4.36145 11.4856 10.9603
2 2.9869 2.95651 5.87138
2 10.7672 5.06901 11.5544
2 2.32484 8.12795 2.34766
2 6.99646 7.89449 9.72981
2 1.01413 9.23589 10.6005
2 2.21885 1.73521 9.97345
2 10.5227 4.18674 2.31797
2 1.52504 8.96656 6.29332
2 4.15435 1.98452 1.94394
2 9.04099 2.25256 5.70538
2 8.75843 2.10565 11.7999
2 4.15485 10.9476 5.48337
2 1.92602 3.65359 1.60184
2 5.13632 7.9046 8.19774
2 1.94575 1.9549 3.58747
2 8.29483 4.19687 10.9097
2 4.11616 3.46222 3.77565
2 3.31273 4.53434 11.2647
2 10.4473 7.52996 2.62002
2 10.0607 2.50183 9.75814
2 10.0921 9.12123 8.94859
2 5.96466 1.5007 3.87066
2 10.7844 5.39963 8.71
2 7.43255 9.13973 2.33813
2 9.0049 6.24331 9.22514
2 10.3979 3.03481 7.02811
2 7.84122 7.13859 7.53648
2 1.83227 11.5543 6.18198
1 9.75549 6.7316 7.57548
1 3.01935 9.79343 1.81981
1 2.64924 3.45973 10.2249
1 9.3563 3.90822 5.70897
1 3.66262 7.53361 7.47617
1 4.90298 1.60915 12.1006
1 11.2084 3.6408 8.56745
1 8.75678 4.81714 2.59635
1 6.15111 4.98741 6.79239
1 10.6068 9.58303 7.22577
1 1.47185 7.52244 5.60827
1 4.63138 10.8086 9.35319
1 3.03844 4.37314 7.29224
1 2.80499 5.70771 12.335
1 2.53407 8.54674 10.4496
1 7.37822 9.86044 10.2533
1 9.11489 8.45709 2.07028
1 10.4515 8.93022 10.8017
1 5.99189 3.37588 3.59147
1 9.35443 1.41288 10.5724
1 4.89369 11.3816 3.8241
1 6.60571 7.1315 8.41775
1 1.68487 1.97469 5.26828
1 9.23747 5.75492 10.7865
1 11.5216 3.70472 12.0598
1 10.904 10.9026 3.94253
1 2.88456 2.92295 2.71588
1 1.35675 11.7437 11.1972
1 1.17085 7.05213 2.83598
1 2.81196 9.99081 5.81149
1 7.46759 3.38744 12.132
1 6.0033 9.57188 1.59427
96
 Atoms. Timestep: 18000
2 1.97486 6.85416 3.20868
2 1.91392 10.879 1.49399
2 4.5748 3.928 6.92296
2 10.8046 10.7835 6.85816
2 0.891856 2.21122 1.14602
2 7.05589 10.425 3.51693
2 3.26111 4.53022 8.271
2 4.36318 11.2727 11.6874
2 8.62949 1.11991 8.27067
2 2.0598 6.77703 12.5239
2 0.83695 10.5244 4.99411
2 10.5324 4.41499 3.45374
2 2.54025 9.74902 6.02713
2 8.102 8.02682 10.1691
2 0.767778 1.25574 11.1293
2 1.40447 8.7126 10.0782
2 3.29039 6.47348 7.46789
2 7.80571 11.9218 11.6326
2 8.39061 10.4852 6.8835
2 10.6043 11.0786 11.948
2 9.18317 5.43841 10.5211
2 8.42291 2.93077 3.33313
2 2.53018 5.90616 5.12466
2 5.85568 11.8673 1.81712
2 9.43613 2.4588 5.94151
2 4.01993 10.5187 1.94311
2 9.25806 7.05012 0.837075
2 0.399949 2.73157 4.44356
2 1.43587 8.51062 8.05486
2 5.90834 4.2315 0.705596
2 1.44726 2.68615 9.2777
2 10.0267 7.34096 3.11307
2 6.29636 3.27151 4.46546
2 8.14284 1.09401 2.62494
2 10.1134 8.29588 5.54315
2 5.32353 2.37943 11.6834
2 2.10933 3.75766 6.40222
2 1.81034 3.78259 11.3869
2 2.46241 8.68299 1.16816
2 5.98101 9.44468 8.99368
2 10.1693 7.97827 9.96038
2 11.1302 11.2945 2.8094
2 11.4494 5.09606 1.5143
2 1.07588 8.09917 5.38451
2 3.74011 4.89376 10.2873
2 10.2359 1.24117 3.53163
2 8.59042 2.98025 11.948
2 3.84365 11.1815 4.35989
2 2.72314 4.18947 1.87957
2 4.4335 8.64317 6.53143
2 2.97287 2.91998 3.95847
2 8.46809 5.30474 2.33368
2 5.39441 3.08597 2.44925
2 1.57037 5.7191 10.5968
2 11.5005 8.84162 2.06711
2 10.1752 1.36917 10.4476
2 8.55574 9.72042 8.9462
2 6.12845 0.873587 3.77004
2 7.0495 2.73339 6.57883
2 8.62186 9.48202 2.06888
2 8.16425 3.70907 8.50719
2 11.2187 10.6793 8.9552
2 6.87628 10.0797 6.50913
2 1.64596 1.02393 5.92129
1 8.36954 2.47241 7.52557
1 3.09284 10.2112 12.4065
1 2.187 4.3905 9.72904
1 9.89744 2.75903 4.23808
1 2.85347 8.07213 6.92856
1 4.60844 4.12982 11.3114
1 11.3929 1.27108 9.57798
1 10.2862 5.85883 2.67569
1 5.81571 3.78758 5.96985
1 9.34831 10.9301 8.13117
1 1.13269 6.50735 4.62825
1 5.94912 0.814781 11.8547
1 3.2163 4.99984 6.64472
1 1.68142 7.37692 10.9151
1 11.3606 8.99049 9.07705
1 7.26708 9.4084 10.0334
1 10.1432 8.48584 1.84379
1 8.97244 6.96083 11.0971
1 6.92683 2.31675 3.05906
1 9.2783 0.98769 11.5579
1 5.13481 10.7569 3.11812
1 5.56068 9.1513 7.40558
1 1.9749 2.50184 5.45011
1 9.05478 5.1399 8.83626
1 1.15827 3.86702 1.1056
1 11.3678 9.48822 6.11941
1 3.85283 3.04295 2.47761
1 11.9707 11.7846 1.30302
1 1.5249 7.77149 2.08836
1 2.39362 11.0946 5.28625
1 7.57249 4.11118 1.34331
1 8.63494 10.8052 2.68054
96
 Atoms. Timestep: 20000
2 11.1405 7.0554 2.67768
2 2.30652 11.1632 1.7919
2 5.40391 1.80497 8.89438
2 2.61554 10.8733 8.23249
2 1.04708 1.82117 2.85683
2 5.06805 10.3487 4.13268
2 2.22776 4.49327 8.11304
2 7.94392 10.9584 11.0957
2 10.3138 1.12643 8.33476
2 11.8036 6.46516 12.8728
2 1.00976 10.7787 6.38584
2 8.60047 2.84535 3.22187
2 3.38444 9.70169 6.5934
2 10.1791 9.52803 7.68753
2 9.74485 4.18521 8.65091
2 2.02052 10.4384 11.0549
2 3.31584 6.76226 6.85951
2 7.70355 1.5172 12.5213
2 0.600594 11.1058 4.3378
2 9.75364 3.21683 1.47608
2 10.1664 7.42971 8.89416
2 7.70395 1.91979 4.73203
2 0.630273 6.50721 5.55858
2 5.81524 11.6203 1.09651
2 9.1654 3.27072 6.25555
2 3.94278 9.99898 0.929285
2 9.97901 9.80433 10.1582
2 11.0393 2.95561 4.87584
2 3.04504 8.76368 8.91101
2 5.96772 4.18336 11.1119
2 1.09746 2.19644 10.273
2 7.54762 5.3467 3.17599
2 5.98948 0.914202 6.27136
2 7.93838 10.1406 5.47305
2 8.70377 8.09413 4.72551
2 5.88988 1.5768 10.8584
2 1.56024 4.00588 5.86719
2 1.76652 4.47423 12.8099
2 0.426365 9.31449 12.8348
2 8.12639 9.69364 7.66641
2 0.85731 8.89965 8.99991
2 2.88655 11.7244 4.78707
2 0.896055 5.08636 3.15435
2 9.7588 5.93324 4.28148
2 3.47385 2.95638 10.304
2 9.4851 0.765255 5.36521
2 8.62905 3.40781 11.1428
2 1.90072 1.29035 6.62559
2 3.02783 3.19335 2.12677
2 5.5258 8.42768 7.91346
2 2.73414 2.48646 4.77772
2 7.77633 4.31615 0.62801
2 5.46447 2.92236 3.94479
2 12.0665 5.51929 10.204
2 9.83755 9.16761 0.191919
2 10.2973 1.62736 10.5691
2 10.3475 9.86489 5.52799
2 5.50721 0.905907 3.07141
2 7.9097 1.95 8.17527
2 9.79749 11.9055 12.4511
2 8.6382 5.6838 10.4118
2 0.352713 10.8495 9.86373
2 6.31961 11.097 8.28278
2 11.8456 1.1188 5.51068
1 9.29471 2.86199 7.95489
1 2.03897 10.0084 0.474858
1 2.04761 3.23936 9.5541
1 9.33272 2.41729 4.73012
1 3.86422 7.95302 7.44795
1 5.07186 2.9458 10.0093
1 11.6455 0.980986 9.70755
1 7.62222 3.9099 2.28504
1 6.43644 1.05277 7.84693
1 11.1625 11.27 5.50384
1 11.4317 6.39414 4.28256
1 6.51172 12.2678 11.7764
1 2.05087 5.64362 6.57292
1 1.50497 5.77686 11.7092
1 1.95356 9.93393 9.34128
1 9.01055 9.03488 6.21683
1 9.56334 10.6104 11.5432
1 10.8194 8.85717 8.97968
1 6.31409 1.61867 4.65043
1 9.50883 2.25948 12.2872
1 4.84818 11.0948 2.14505
1 6.6651 9.50032 8.18504
1 1.27475 2.4733 5.71846
1 10.2153 5.71302 9.31435
1 1.43222 3.55575 2.32586
1 8.2544 6.48227 3.84634
1 3.80556 2.89472 3.66373
1 1.83983 0.462017 3.2728
1 10.9121 7.95571 1.11561
1 2.47002 11.2871 6.63373
1 7.56745 4.70483 11.3239
1 6.8035 10.6586 4.51047
96
 Atoms. Timestep: 22000
2 0.856414 7.14441 1.8963
2 2.20392 10.7842 1.81618
2 5.77673 3.06572 8.84642
2 2.79908 10.6184 8.28889
2 1.30318 1.3047 2.91563
2 5.80719 9.21418 3.29287
2 2.84551 4.07595 8.26998
2 8.34815 9.96681 11.3053
2 10.3175 2.43681 8.80968
2 1.89978 5.88003 11.8065
2 7.39422 10.6475 3.70779
2 7.91964 4.18647 3.87668
2 3.00993 9.46288 6.48232
2 9.4951 9.1657 7.39988
2 8.97953 4.20065 8.65287
2 2.5747 10.1314 11.0308
2 3.24403 6.72661 7.02264
2 8.99629 0.992518 11.8244
2 10.7755 10.5472 3.19397
2 11.04 2.96235 2.2277
2 10.171 6.8016 8.75523
2 7.02308 2.24787 4.95286
2 2.60645 5.87156 3.79826
2 7.03231 11.2901 1.40881
2 8.72802 3.07269 6.03117
2 4.59772 10.3814 1.35899
2 9.16018 8.92229 9.56694
2 11.2154 2.40061 4.79188
2 2.66444 8.76115 9.36757
2 6.8791 3.41201 10.8419
2 1.18209 2.44981 9.82028
2 8.97268 6.6722 2.81578
2 5.76056 3.06421 6.28769
2 4.68136 10.3214 5.93295
2 6.78536 8.422 5.92257
2 6.2001 1.14312 11.1556
2 1.59682 3.87109 5.52271
2 1.81363 2.98131 12.4028
2 2.64761 8.30246 0.691786
2 7.52716 9.92131 7.54558
2 11.5352 9.0826 8.72606
2 2.36811 10.9655 4.60164
2 1.24378 6.63484 5.16012
2 10.8948 7.68068 3.8422
2 3.86422 3.21935 10.4656
2 9.94156 2.46542 3.97092
2 8.50218 2.94215 0.82246
2 2.35138 1.56268 6.49084
2 2.11121 3.94424 2.91362
2 4.82473 9.16179 8.11967
2 3.93851 4.658 5.95319
2 7.42555 4.68909 1.12355
2 4.05502 3.05628 4.07498
2 11.651 4.63225 10.5996
2 9.30281 8.9284 1.62743
2 10.4849 2.34862 11.8128
2 9.25841 10.4158 5.28362
2 6.05404 1.04986 3.54706
2 7.88246 1.87194 7.80397
2 11.5144 8.20198 11.6011
2 9.11378 4.60217 10.6066
2 0.598354 11.6189 9.64373
2 5.56444 11.8625 7.91971
2 10.764 3.37673 6.884
1 9.30231 2.66623 7.48023
1 3.23016 9.70239 0.580491
1 2.42948 3.47168 9.64702
1 8.41201 2.89817 4.41797
1 3.40294 8.37909 7.80208
1 5.59614 2.81369 10.3362
1 10.9799 1.75777 10.194
1 7.97803 5.06081 2.66368
1 6.21381 2.26496 7.66885
1 9.11235 10.7397 3.55032
1 1.32561 6.71344 3.37959
1 7.60666 11.5391 11.6699
1 3.42552 5.28147 7.37152
1 1.60652 4.4525 11.5799
1 1.48596 10.1732 9.82263
1 8.23377 9.29451 6.35379
1 9.89829 9.20543 11.3986
1 10.2647 8.33299 8.35647
1 5.49006 2.22164 4.54191
1 9.70517 2.0975 1.09454
1 5.89912 10.8759 2.54006
1 6.03498 10.2536 7.81862
1 0.800087 2.65521 6.25267
1 10.1886 5.1966 9.44362
1 1.41742 2.73284 2.2457
1 9.75968 8.09371 3.02405
1 2.922 4.17354 4.42224
1 1.32026 10.9211 3.23733
1 1.50669 7.2562 12.5273
1 2.72885 11.0828 6.50039
1 7.98363 4.13745 11.4485
1 5.27286 9.14453 5.01358
96
 Atoms. Timestep: 24000
2 1.55464 5.54441 1.25372