LAMMPS (2 Aug 2023 - Update 3)
units metal
boundary p p p
atom_style full
pair_style tersoff
neighbor 2.0 bin
neigh_modify delay 1




read_data SiO.data
Reading data file ...
  orthogonal box = (0 0 0) to (12.589463 12.589463 13.222096)
  1 by 1 by 1 MPI processor grid
WARNING: Atom style in data file atom-ID molecule-ID atom-type q x y z differs from currently defined atom style full (../read_data.cpp:621)
  reading atoms ...
  96 atoms
Finding 1-2 1-3 1-4 neighbors ...
  special bond factors lj:    0        0        0       
  special bond factors coul:  0        0        0       
     0 = max # of 1-2 neighbors
     0 = max # of 1-3 neighbors
     0 = max # of 1-4 neighbors
     1 = max # of special neighbors
  special bonds CPU = 0.000 seconds
  read_data CPU = 0.002 seconds
replicate 1 1 1
Replication is creating a 1x1x1 = 1 times larger system...
  orthogonal box = (0 0 0) to (12.589463 12.589463 13.222096)
  1 by 1 by 1 MPI processor grid
  96 atoms
Finding 1-2 1-3 1-4 neighbors ...
  special bond factors lj:    0        0        0       
  special bond factors coul:  0        0        0       
     0 = max # of 1-2 neighbors
     0 = max # of 1-3 neighbors
     0 = max # of 1-4 neighbors
     1 = max # of special neighbors
  special bonds CPU = 0.000 seconds
  replicate CPU = 0.001 seconds

pair_coeff * *  /root/Desktop/host/job1/SiO.tersoff Si O
Reading tersoff potential file /root/Desktop/host/job1/SiO.tersoff with DATE: 2010-08-16



group Si type 1
32 atoms in group Si
group O type 2
64 atoms in group O
#create_bonds many SiO SiO 1 0.5 10

dump dmp all xyz 2000 dump.lammpstrj



variable apot equal pe
# first number: number of steps to get current temp
# second number: calculate average n number of temp read above.
# third number: temp record (this must be larger than the one above )

variable atemp equal temp
fix temp_info all ave/time 10 200 2000 v_atemp file temperature.dat

#The cutoff used for pairwise computation (any pair style) and the
#associated neighbor list is the maximum cutoff that any compute
#can use. Atoms don't know any info about their neighbors
#further away than that.

# compute coord number
compute coor12 Si coord/atom cutoff 2.5 group O
compute coor11 Si coord/atom cutoff 2.5 group Si
compute coor22 O coord/atom cutoff 2.0 group O

compute sumcoor12 all reduce ave c_coor12
compute sumcoor11 all reduce ave c_coor11
compute sumcoor22 all reduce ave c_coor22


fix 12coord all ave/time  10 200 2000 c_sumcoor12 file Si-O_coord_number.dat
fix 11coord all ave/time  10 200 2000  c_sumcoor11 file Si-Si_coord_number.dat
fix 22coord all ave/time  10 200 2000  c_sumcoor22 file O-O_coord_number.dat




# unit cell information
variable avol equal vol
variable alx equal lx
variable aly equal ly
variable alz equal lz
fix cell_info all ave/time 10 200 2000 v_avol v_alx v_aly v_alz file cell_volume.dat


fix potential_info all ave/time 10 200 2000 v_apot file potential-energy.dat
thermo 1000



velocity all create 6000 50246 mom yes rot no dist gaussian
fix npt1 all npt temp 6000 5000 0.1 iso 0 0  1
timestep 0.001
#run 500
run 80000
Neighbor list info ...
  update: every = 1 steps, delay = 1 steps, check = yes
  max neighbors/atom: 2000, page size: 100000
  master list distance cutoff = 4.8
  ghost atom cutoff = 4.8
  binsize = 2.4, bins = 6 6 6
  4 neighbor lists, perpetual/occasional/extra = 1 3 0
  (1) pair tersoff, perpetual
      attributes: full, newton on
      pair build: full/bin
      stencil: full/bin/3d
      bin: standard
  (2) compute coord/atom, occasional, copy from (1)
      attributes: full, newton on
      pair build: copy
      stencil: none
      bin: none
  (3) compute coord/atom, occasional, copy from (1)
      attributes: full, newton on
      pair build: copy
      stencil: none
      bin: none
  (4) compute coord/atom, occasional, copy from (1)
      attributes: full, newton on
      pair build: copy
      stencil: none
      bin: none
Per MPI rank memory allocation (min/avg/max) = 6.021 | 6.021 | 6.021 Mbytes
   Step          Temp          E_pair         E_mol          TotEng         Press          Volume    
         0   6000          -638.06385      0             -564.38556      73800.118      2095.6304    
      1000   5532.4166     -556.7604       0             -488.82391      9153.7209      2237.4278    
      2000   6138.805      -558.57685      0             -483.19408     -30573.099      2339.8891    
      3000   5609.191      -531.07074      0             -462.19148     -33802.772      2495.575     
      4000   5681.0125     -553.18441      0             -483.4232      -10942.854      2237.4195    
      5000   5739.3729     -528.64605      0             -458.16819     -6665.048       2289.2586    
      6000   5787.6234     -531.72639      0             -460.65604      33673.116      2243.3653    
      7000   6405.6113     -540.36427      0             -461.70519      24951.325      2292.3327    
      8000   5747.6874     -527.34228      0             -456.76232      11340.124      2228.0844    
      9000   6531.2903     -537.73004      0             -457.52766      12779.336      2112.3773    
     10000   5398.9179     -517.52993      0             -451.23276      12553.807      2059.4664    
     11000   6037.2787     -533.11735      0             -458.98129      12559.279      1831.426     
     12000   5638.564      -515.7639       0             -446.52395      47756.946      1766.508     
     13000   5978.5854     -531.33335      0             -457.91803      39163.525      1370.578     
     14000   5604.3096     -529.16423      0             -460.34491     -22452.632      1521.1133    
     15000   6015.5953     -549.0609       0             -475.19111     -35791.409      1429.0081    
     16000   5501.2141     -547.97976      0             -480.42643     -10000.059      1372.6501    
     17000   6690.8274     -532.34397      0             -450.18253      3959.574       1486.849     
     18000   5851.1668     -529.75861      0             -457.90795     -17380.595      1532.9246    
     19000   6500.6465     -558.01943      0             -478.19335      47513.942      1503.6327    
     20000   5153.4425     -550.04765      0             -486.76485     -47061.691      1642.6545    
     21000   6036.4595     -542.90371      0             -468.77771     -46590.271      1571.6821    
     22000   5097.3512     -545.55995      0             -482.96594      33513.716      1520.3588    
     23000   5318.7915     -534.03733      0             -468.72409     -43204.534      1689.0838    
     24000   5929.5708     -538.07744      0             -465.26401      6020.7018      1483.4818    
     25000   6103.428      -544.46894      0             -469.52059      28124.405      1489.864     
     26000   6330.0969     -542.0023       0             -464.27052      72892.716      1452.2855    
     27000   6011.4256     -532.00442      0             -458.18583     -29920.55       1583.2504    
     28000   5220.3024     -549.6741       0             -485.57028     -19365.788      1561.8041    
     29000   5559.9991     -552.45626      0             -484.18106     -29042.828      1550.9448    
     30000   6523.081      -524.94987      0             -444.8483       83575.754      1477.0434    
     31000   5113.0423     -538.66255      0             -475.87586      11959.949      1475.503     
     32000   5506.7062     -523.26139      0             -455.64061     -38580.802      1442.4047    
     33000   6006.1571     -541.28884      0             -467.53495      16458.019      1480.1802    
     34000   5255.9599     -531.55704      0             -467.01536     -21694.721      1572.1803    
     35000   5088.6968     -534.93969      0             -472.45195     -21145.252      1601.0209    
     36000   5027.9219     -558.68701      0             -496.94557      58188.199      1376.4632    
     37000   6216.5905     -548.04644      0             -471.70849     -24842.211      1516.6431    
     38000   5299.3593     -539.34075      0             -474.26613      37241.471      1538.3826    
     39000   5289.5165     -539.35927      0             -474.40552      9184.117       1564.0117    
     40000   5292.8238     -545.5975       0             -480.60314     -2707.8164      1553.5569    
     41000   5417.6513     -555.88608      0             -489.35887     -17616.432      1535.0955    
     42000   5951.118      -557.75927      0             -484.68125     -23415.581      1501.1884    
     43000   5529.613      -544.27967      0             -476.3776       9904.076       1504.3632    
     44000   6014.1788     -555.79801      0             -481.94562     -18237.992      1480.1935    
     45000   5533.4968     -549.50677      0             -481.55701     -5727.7907      1573.2452    
     46000   5391.5315     -560.35146      0             -494.145       -23626.512      1469.3117    
     47000   5876.3598     -539.59047      0             -467.43045     -19783.438      1487.6864    
     48000   5427.088      -551.25051      0             -484.60742     -13631.137      1375.0014    
     49000   5032.185      -549.42255      0             -487.62876      6037.5901      1383.2889    
     50000   6466.1689     -541.14795      0             -461.74524     -1098.3853      1570.9834    
     51000   5075.9364     -544.41746      0             -482.08642      1167.131       1585.001     
     52000   4692.413      -556.28141      0             -498.65992      18373.893      1460.7896    
     53000   4902.983      -562.58053      0             -502.3733      -5501.9913      1440.1764    
     54000   4959.9321     -551.77277      0             -490.86623     -2508.7008      1473.5456    
     55000   4872.6157     -538.52909      0             -478.69476     -34007.347      1477.9269    
     56000   5135.2738     -549.27935      0             -486.21966     -45231.174      1571.5103    
     57000   5476.7974     -540.77623      0             -473.52272      10295.026      1513.2246    
     58000   4479.2664     -545.70197      0             -490.69786     -6271.7516      1432.2466    
     59000   5460.3925     -541.75433      0             -474.70227     -19832.477      1426.9298    
     60000   4678.884      -549.16947      0             -491.71411      1495.6096      1539.4948    
     61000   5137.738      -534.3076       0             -471.21765     -3956.2766      1493.8618    
     62000   4834.9648     -550.9668       0             -491.59481     -11658.08       1493.7791    
     63000   4555.4279     -535.69194      0             -479.75259     -37013.23       1509.2302    
     64000   5823.4807     -535.8605       0             -464.34982      10361.155      1561.5424    
     65000   5046.0155     -554.39626      0             -492.43264      214.98359      1399.5138    
     66000   4803.0332     -549.56297      0             -490.5831      -35599.35       1416.7244    
     67000   5860.5379     -558.73531      0             -486.76959     -6443.0809      1404.2255    
     68000   6156.2363     -551.21141      0             -475.61459      50000.324      1291.1156    
     69000   4736.3552     -553.78277      0             -495.62168     -14479.696      1410.7339    
     70000   4760.7277     -557.89         0             -499.42963      2171.7478      1413.7366    
     71000   4916.2897     -557.06479      0             -496.69416     -11721.119      1374.9602    
     72000   5401.2066     -545.86574      0             -479.54047     -24119.986      1372.519     
     73000   5425.593      -561.92564      0             -495.30091     -20910.902      1385.0237    
     74000   5226.3986     -551.8315       0             -487.65283      54249.34       1433.9162    
     75000   5220.6039     -560.86727      0             -496.75974     -15809.821      1554.8761    
     76000   4494.2646     -549.78857      0             -494.60029     -8461.0746      1362.7637    
     77000   4979.1296     -558.02019      0             -496.87791     -7918.7624      1506.8175    
     78000   4013.6591     -556.55624      0             -507.26966     -46892.102      1521.5165    
     79000   4827.169      -560.0922       0             -500.81594     -35755.962      1491.801     
     80000   5079.1431     -558.05583      0             -495.6854       22453.099      1428.8988    
Loop time of 6.66005 on 1 procs for 80000 steps with 96 atoms

Performance: 1037.830 ns/day, 0.023 hours/ns, 12011.927 timesteps/s, 1.153 Matom-step/s
99.4% CPU use with 1 MPI tasks x no OpenMP threads

MPI task timing breakdown:
Section |  min time  |  avg time  |  max time  |%varavg| %total
---------------------------------------------------------------
Pair    | 5.5239     | 5.5239     | 5.5239     |   0.0 | 82.94
Bond    | 0.0025205  | 0.0025205  | 0.0025205  |   0.0 |  0.04
Neigh   | 0.45231    | 0.45231    | 0.45231    |   0.0 |  6.79
Comm    | 0.20779    | 0.20779    | 0.20779    |   0.0 |  3.12
Output  | 0.008948   | 0.008948   | 0.008948   |   0.0 |  0.13
Modify  | 0.42946    | 0.42946    | 0.42946    |   0.0 |  6.45
Other   |            | 0.03512    |            |       |  0.53

Nlocal:             96 ave          96 max          96 min
Histogram: 1 0 0 0 0 0 0 0 0 0
Nghost:            502 ave         502 max         502 min
Histogram: 1 0 0 0 0 0 0 0 0 0
Neighs:              0 ave           0 max           0 min
Histogram: 1 0 0 0 0 0 0 0 0 0
FullNghs:         2888 ave        2888 max        2888 min
Histogram: 1 0 0 0 0 0 0 0 0 0

Total # of neighbors = 2888
Ave neighs/atom = 30.083333
Ave special neighs/atom = 0
Neighbor list builds = 3750
Dangerous builds = 0

fix npt1 all npt temp 5000 4000 0.1 iso 0 0 1
run 80000
Per MPI rank memory allocation (min/avg/max) = 8.549 | 8.549 | 8.549 Mbytes
   Step          Temp          E_pair         E_mol          TotEng         Press          Volume    
     80000   5079.1431     -558.05583      0             -495.6854       22453.099      1428.8988    
     81000   4841.3128     -546.2405       0             -486.79056      16208.806      1462.9625    
     82000   5073.2614     -559.48205      0             -497.18386     -24367.055      1425.6715    
     83000   5480.8815     -552.1756       0             -484.87195      5079.2145      1445.3283    
     84000   4981.8879     -555.33842      0             -494.16227     -16023.294      1440.8249    
     85000   4534.0693     -549.44457      0             -493.76749     -34233.362      1408.0654    
     86000   4710.4758     -549.65177      0             -491.80847     -8534.5746      1419.206     
     87000   4162.4961     -564.87652      0             -513.76226     -7016.3365      1511.4853    
     88000   5191.8289     -552.92231      0             -489.16813     -8861.4039      1337.1135    
     89000   4715.2849     -556.0841       0             -498.18176     -3559.121       1412.84      
     90000   5147.3683     -568.93669      0             -505.72848      9542.0921      1391.8143    
     91000   4786.1399     -560.55096      0             -501.77853      48267.697      1505.5809    
     92000   4442.4241     -548.00032      0             -493.44862      13615.645      1523.86      
     93000   4798.6291     -559.86384      0             -500.93805      39934.607      1365.8434    
     94000   4669.474      -564.12203      0             -506.78223      654.98074      1531.9371    
     95000   4616.0917     -557.18773      0             -500.50344     -30151.312      1594.1475    
     96000   5769.7754     -554.39166      0             -483.54047     -29242.56       1576.9159    
     97000   4668.8046     -560.9825       0             -503.65091     -11946.802      1577.3741    
     98000   4943.7717     -575.81337      0             -515.10527     -5539.6252      1513.4685    
     99000   5308.6158     -561.7713       0             -496.58302     -3152.5997      1514.052     
    100000   4880.2606     -564.55533      0             -504.62713      27473.901      1574.9681    
    101000   4556.1345     -547.39549      0             -491.44746     -7027.2301      1410.5277    
    102000   4515.4613     -557.82862      0             -502.38004      14936.699      1373.3169    
    103000   4397.3778     -563.6965       0             -509.69796     -3217.5875      1420.1961    
    104000   4764.3282     -559.02327      0             -500.51869      8952.5762      1556.2559    
    105000   4688.4047     -566.31563      0             -508.74336     -4549.7513      1627.7022    
    106000   4518.6943     -556.84281      0             -501.35454     -63047.142      1571.038     
    107000   4920.8681     -574.3681       0             -513.94125     -3473.1218      1495.7266    
    108000   4871.3473     -569.58114      0             -509.76239      32737.937      1482.5293    
    109000   4808.5015     -560.84075      0             -501.79373     -40975.67       1529.4066    
    110000   3996.6753     -574.14496      0             -525.06694     -34356.786      1567.2875    
    111000   4326.222      -563.73582      0             -510.61105      29593.555      1549.7903    
    112000   4380.0809     -575.60005      0             -521.81391     -1194.283       1505.7204    
    113000   4350.9348     -576.8782       0             -523.44997     -31172.958      1499.2224    
    114000   3924.6763     -564.0396       0             -515.84569      2247.1394      1551.246     
    115000   4412.0037     -561.22253      0             -507.04439     -1698.2848      1608.5854    
    116000   4208.5848     -562.30144      0             -510.62123      10835.714      1608.8642    
    117000   4764.3466     -558.97599      0             -500.47117     -31268.914      1572.0393    
    118000   4242.1528     -562.02096      0             -509.92854      18908.594      1601.3819    
    119000   4777.9446     -572.89441      0             -514.22261     -11164.009      1515.0989    
    120000   4563.0529     -572.29535      0             -516.26237     -18739.148      1607.316     
    121000   4275.9338     -555.53927      0             -503.03203      9643.82        1572.6039    
    122000   4155.8531     -571.15798      0             -520.12529     -12423.795      1549.9489    
    123000   4566.8978     -565.55777      0             -509.47757     -12798.672      1636.0105    
    124000   4901.6458     -559.39966      0             -499.20886      9323.9202      1537.6247    
    125000   5380.3566     -562.35849      0             -496.28925     -33842.267      1470.8847    
    126000   4534.7372     -568.54107      0             -512.85579     -5091.3396      1580.705     
    127000   4172.3335     -561.84961      0             -510.61455     -15702.322      1435.2777    
    128000   4241.1074     -561.20841      0             -509.12883      18425.681      1498.8821    
    129000   3970.2216     -563.62897      0             -514.87578      2516.9027      1542.4354    
    130000   3826.2393     -562.90779      0             -515.92267     -42174.752      1521.2287    
    131000   3643.0217     -564.98656      0             -520.2513      -4759.3148      1583.3265    
    132000   4461.7858     -561.87219      0             -507.08273     -25398.483      1415.7755    
    133000   4062.1        -559.25761      0             -509.37619      51047.006      1429.5293    
    134000   4243.914      -576.63115      0             -524.51711     -28343.169      1396.2084    
    135000   4979.0377     -573.5785       0             -512.43734      18644.198      1483.8342    
    136000   4364.5697     -572.29132      0             -518.69565     -47211.493      1466.9537    
    137000   3524.3505     -563.29164      0             -520.01362     -49180.58       1508.0328    
    138000   5043.5821     -563.64999      0             -501.71625      18636.495      1511.1819    
    139000   4261.7721     -568.68829      0             -516.35495     -5869.6993      1531.5235    
    140000   4484.3357     -564.18238      0             -509.11602      30904.738      1346.3407    
    141000   4761.8198     -573.52661      0             -515.05283     -501.16722      1392.4095    
    142000   4083.3669     -563.9386       0             -513.79602     -18627.94       1451.6438    
    143000   4834.5937     -565.42357      0             -506.05615     -22447.248      1331.8311    
    144000   3740.1712     -559.74256      0             -513.81432      12578.587      1390.8548    
    145000   3918.7545     -565.82259      0             -517.70141      15952.99       1492.1374    
    146000   4234.8395     -567.31208      0             -515.30946     -32766.544      1544.2454    
    147000   4555.2922     -571.79329      0             -515.8556      -16801.163      1416.9852    
    148000   4209.1076     -571.80557      0             -520.11893     -46438.8        1452.7021    
    149000   4390.8439     -561.09163      0             -507.17332     -25720.755      1399.0171    
    150000   3721.9312     -570.15186      0             -524.44761      13672.445      1358.8669    
    151000   3901.8581     -573.22961      0             -525.31591     -8245.9956      1414.7879    
    152000   4467.6806     -568.89857      0             -514.03673      57976.897      1367.0806    
    153000   3840.4237     -565.3234       0             -518.16409     -13124.098      1516.7611    
    154000   3802.1724     -569.35582      0             -522.66623     -22813.229      1439.9862    
    155000   4350.3776     -569.11577      0             -515.69438      19656.049      1499.1356    
    156000   4548.7156     -574.60488      0             -518.74795      26921.215      1564.4345    
    157000   4031.7847     -572.7086       0             -523.19944      34740.422      1493.483     
    158000   3913.1002     -573.82538      0             -525.77363      4939.8572      1485.4493    
    159000   4470.1282     -576.10331      0             -521.21141      3537.3985      1519.6462    
    160000   3690.0237     -575.80906      0             -530.49662     -25066.717      1627.1278    
Loop time of 6.46758 on 1 procs for 80000 steps with 96 atoms

Performance: 1068.715 ns/day, 0.022 hours/ns, 12369.384 timesteps/s, 1.187 Matom-step/s
99.3% CPU use with 1 MPI tasks x no OpenMP threads

MPI task timing breakdown:
Section |  min time  |  avg time  |  max time  |%varavg| %total
---------------------------------------------------------------
Pair    | 5.392      | 5.392      | 5.392      |   0.0 | 83.37
Bond    | 0.0023447  | 0.0023447  | 0.0023447  |   0.0 |  0.04
Neigh   | 0.40299    | 0.40299    | 0.40299    |   0.0 |  6.23
Comm    | 0.20166    | 0.20166    | 0.20166    |   0.0 |  3.12
Output  | 0.015313   | 0.015313   | 0.015313   |   0.0 |  0.24
Modify  | 0.42027    | 0.42027    | 0.42027    |   0.0 |  6.50
Other   |            | 0.03305    |            |       |  0.51

Nlocal:             96 ave          96 max          96 min
Histogram: 1 0 0 0 0 0 0 0 0 0
Nghost:            478 ave         478 max         478 min
Histogram: 1 0 0 0 0 0 0 0 0 0
Neighs:              0 ave           0 max           0 min
Histogram: 1 0 0 0 0 0 0 0 0 0
FullNghs:         2490 ave        2490 max        2490 min
Histogram: 1 0 0 0 0 0 0 0 0 0

Total # of neighbors = 2490
Ave neighs/atom = 25.9375
Ave special neighs/atom = 0
Neighbor list builds = 3294
Dangerous builds = 0

fix npt1 all npt temp 4000 4000 0.1 iso 0 0 1
run 80000
Per MPI rank memory allocation (min/avg/max) = 8.549 | 8.549 | 8.549 Mbytes
   Step          Temp          E_pair         E_mol          TotEng         Press          Volume    
    160000   3690.0237     -575.80906      0             -530.49662     -25066.717      1627.1278    
    161000   3929.98       -568.23059      0             -519.97156      17492.487      1629.1683    
    162000   4108.3551     -578.25992      0             -527.81049     -12462.532      1525.7212    
    163000   4016.7244     -573.60634      0             -524.28211     -1159.161       1528.4848    
    164000   4159.8524     -576.48279      0             -525.40099     -8141.8131      1573.5973    
    165000   4300.8835     -566.79355      0             -513.97993      3796.0145      1467.7494    
    166000   4354.995      -571.06806      0             -517.58996      27426.979      1451.4142    
    167000   4072.2312     -576.06319      0             -526.05736     -15238.689      1466.2519    
    168000   3860.663      -574.88181      0             -527.47397      28151.609      1422.7287    
    169000   4065.6729     -576.03328      0             -526.10799      9071.6948      1450.1778    
    170000   3714.1579     -564.11063      0             -518.50183     -37972.562      1454.9445    
    171000   3859.4529     -569.72075      0             -522.32778      13064.937      1439.505     
    172000   3299.1071     -568.38291      0             -527.87082      23388.563      1426.0594    
    173000   4439.6717     -570.2839       0             -515.766        10459.618      1489.669     
    174000   4053.3074     -565.34802      0             -515.57456     -49687.91       1472.1104    
    175000   4090.4165     -570.58386      0             -520.35471      17387.213      1525.8492    
    176000   4204.9452     -564.67677      0             -513.04124      26434.97       1420.8707    
    177000   4010.0121     -572.62671      0             -523.38491     -2030.0571      1500.1229    
    178000   4667.4966     -570.30362      0             -512.9881       30954.778      1481.4511    
    179000   3970.2312     -573.55196      0             -524.79866     -27917.911      1508.0781    
    180000   4280.9689     -562.61299      0             -510.04392      40379.742      1475.2502    
    181000   4031.1335     -574.63189      0             -525.13073      41060.294      1398.7522    
    182000   4029.9358     -574.36612      0             -524.87966     -1238.264       1506.5177    
    183000   4080.9392     -572.73024      0             -522.61748      823.55197      1507.7926    
    184000   5115.2291     -568.55724      0             -505.74369      11774.95       1474.9504    
    185000   4074.169      -563.04116      0             -513.01153     -14854.516      1441.4844    
    186000   4212.4877     -568.68647      0             -516.95833     -29067.028      1479.773     
    187000   4091.4633     -562.72919      0             -512.48719     -6722.6052      1486.8494    
    188000   3799.2383     -568.44955      0             -521.79599     -26560.071      1497.9419    
    189000   4201.8608     -570.64317      0             -519.04553      7414.2706      1493.5725    
    190000   3777.0211     -572.94235      0             -526.56161      35062.681      1465.4724    
    191000   4709.541      -572.63826      0             -514.80644      24386.985      1503.3319    
    192000   4334.3992     -575.33593      0             -522.11075     -23566.774      1476.3214    
    193000   3926.6764     -577.20809      0             -528.98963      20828.005      1474.6781    
    194000   4440.1674     -575.71842      0             -521.19443      32913.262      1468.8073    
    195000   3879.8515     -572.28829      0             -524.64483      6770.4417      1339.9378    
    196000   3602.4608     -577.762        0             -533.52482     -26253.276      1430.8094    
    197000   4255.4961     -573.30506      0             -521.04879     -4858.6458      1445.7756    
    198000   3681.1219     -576.86007      0             -531.65694      23591.961      1386.9869    
    199000   4282.1905     -572.53989      0             -519.95581      3540.233       1394.11      
    200000   3726.0555     -573.10939      0             -527.3545      -5790.4931      1433.0438    
    201000   4242.6756     -574.07243      0             -521.97359     -105.41716      1399.4603    
    202000   3686.1611     -572.60773      0             -527.34273      2373.7938      1391.4693    
    203000   4585.1553     -575.66909      0             -519.3647       32594.038      1483.9943    
    204000   3945.5586     -571.78181      0             -523.33148     -13958.744      1519.0802    
    205000   4140.814      -571.44054      0             -520.59253      11253.86       1398.1979    
    206000   4511.2624     -566.52178      0             -511.12477     -23341.004      1411.1514    
    207000   4047.9435     -575.35416      0             -525.64658     -42400.551      1490.5097    
    208000   5008.7509     -577.17327      0             -515.66724      3973.2871      1450.2092    
    209000   4194.5858     -573.87798      0             -522.36967     -19669.928      1436.6799    
    210000   4130.0416     -573.55978      0             -522.84405      44149.409      1432.3342    
    211000   4497.4841     -575.41852      0             -520.1907      -6984.377       1473.3864    
    212000   3661.1741     -564.96262      0             -520.00445     -47205.622      1473.0334    
    213000   4221.123      -568.12157      0             -516.28739     -772.71759      1502.5777    
    214000   4073.4278     -572.51241      0             -522.49188     -45031.359      1573.2155    
    215000   4399.4674     -573.76411      0             -519.73991      7772.8372      1606.2187    
    216000   3393.4929     -574.37522      0             -532.70409      1166.3502      1452.8493    
    217000   4290.5376     -576.85671      0             -524.17014      57090.712      1444.8014    
    218000   3794.5488     -578.96809      0             -532.37211      34202.342      1443.0404    
    219000   3692.7015     -583.19529      0             -537.84998      17163.365      1441.4082    
    220000   4154.11       -576.01126      0             -524.99997     -43.714189      1481.0298    
    221000   3835.9874     -573.07882      0             -525.97399      18161.511      1533.12      
    222000   3783.6992     -580.20993      0             -533.74718      8472.79        1552.4342    
    223000   4635.918      -571.78743      0             -514.85968      6736.2476      1505.1044    
    224000   4126.1052     -575.42076      0             -524.75337     -18179.049      1664.2135    
    225000   4403.3731     -583.19945      0             -529.12729      6524.058       1563.2507    
    226000   3747.1918     -574.97159      0             -528.95714     -4623.8953      1529.4165    
    227000   4684.2191     -572.31961      0             -514.79874     -8309.3701      1573.0536    
    228000   4020.9541     -578.15294      0             -528.77677      8662.7323      1499.6269    
    229000   3699.6397     -579.80124      0             -534.37072     -11834.548      1478.4677    
    230000   3937.5693     -587.20109      0             -538.84887      8999.0906      1506.7766    
    231000   4182.9615     -577.77982      0             -526.41425      11100.728      1539.9552    
    232000   3576.2402     -582.02352      0             -538.10832      43323.159      1568.8732    
    233000   3771.4029     -582.65279      0             -536.34104      15822.524      1539.4527    
    234000   4109.8723     -583.32124      0             -532.85319      1252.7901      1584.1351    
    235000   4198.0393     -581.51614      0             -529.96542     -703.11305      1605.4994    
    236000   4085.3872     -578.13064      0             -527.96325      35681.974      1555.4119    
    237000   3918.6584     -582.98892      0             -534.86892      742.93967      1509.0185    
    238000   3827.1574     -576.32961      0             -529.33321      24900.266      1492.2398    
    239000   3962.0953     -572.3448       0             -523.6914      -30910.009      1521.3083    
    240000   4052.6724     -572.65666      0             -522.89101      34772.454      1478.0164    
Loop time of 6.26275 on 1 procs for 80000 steps with 96 atoms

Performance: 1103.668 ns/day, 0.022 hours/ns, 12773.934 timesteps/s, 1.226 Matom-step/s
99.2% CPU use with 1 MPI tasks x no OpenMP threads

MPI task timing breakdown:
Section |  min time  |  avg time  |  max time  |%varavg| %total
---------------------------------------------------------------
Pair    | 5.2121     | 5.2121     | 5.2121     |   0.0 | 83.22
Bond    | 0.0026247  | 0.0026247  | 0.0026247  |   0.0 |  0.04
Neigh   | 0.37833    | 0.37833    | 0.37833    |   0.0 |  6.04
Comm    | 0.20317    | 0.20317    | 0.20317    |   0.0 |  3.24
Output  | 0.0099456  | 0.0099456  | 0.0099456  |   0.0 |  0.16
Modify  | 0.4239     | 0.4239     | 0.4239     |   0.0 |  6.77
Other   |            | 0.03271    |            |       |  0.52

Nlocal:             96 ave          96 max          96 min
Histogram: 1 0 0 0 0 0 0 0 0 0
Nghost:            526 ave         526 max         526 min
Histogram: 1 0 0 0 0 0 0 0 0 0
Neighs:              0 ave           0 max           0 min
Histogram: 1 0 0 0 0 0 0 0 0 0
FullNghs:         2820 ave        2820 max        2820 min
Histogram: 1 0 0 0 0 0 0 0 0 0

Total # of neighbors = 2820
Ave neighs/atom = 29.375
Ave special neighs/atom = 0
Neighbor list builds = 3089
Dangerous builds = 0

fix npt1 all npt temp 4000 3000 0.1 iso 0 0  1
run 80000
Per MPI rank memory allocation (min/avg/max) = 8.549 | 8.549 | 8.549 Mbytes
   Step          Temp          E_pair         E_mol          TotEng         Press          Volume    
    240000   4052.6724     -572.65666      0             -522.89101      34772.454      1478.0164    
    241000   3775.2774     -566.95941      0             -520.60008     -5385.7622      1519.033     
    242000   3757.6109     -576.7256       0             -530.58321      18408.164      1567.9451    
    243000   4420.0552     -574.37548      0             -520.09846      44178.085      1539.2783    
    244000   4527.8738     -579.09304      0             -523.49204      26497.359      1527.1939    
    245000   4195.0232     -576.39782      0             -524.88414      4693.4786      1497.208     
    246000   3734.5534     -582.07371      0             -536.21447     -2072.6902      1475.1657    
    247000   3601.0298     -580.7241       0             -536.50448      1587.849       1477.5912    
    248000   4182.2461     -574.00036      0             -522.64358      75589.492      1483.3072    
    249000   3805.3622     -581.35992      0             -534.63116     -37433.304      1495.5736    
    250000   4000.2314     -573.33843      0             -524.21673     -37359.739      1459.3291    
    251000   3977.1381     -583.7485       0             -534.91039      6875.6451      1454.7857    
    252000   3707.2645     -574.83392      0             -529.30977     -14069.925      1525.7006    
    253000   4239.8189     -570.62893      0             -518.56517     -6014.3435      1519.8596    
    254000   4261.6366     -578.56011      0             -526.22843     -38594.027      1575.082     
    255000   3824.8737     -577.8536       0             -530.88525      16110.953      1555.0459    
    256000   4016.3485     -582.27365      0             -532.95404      19110.506      1553.0309    
    257000   3547.9189     -583.37747      0             -539.81004     -18670.567      1507.676     
    258000   4249.6925     -577.32424      0             -525.13923      15863.265      1479.6162    
    259000   3622.0901     -580.38439      0             -535.90616      20005.066      1430.8052    
    260000   3881.2363     -576.59325      0             -528.93278      30531.184      1463.8809    
    261000   3894.0813     -583.7002       0             -535.88199      20276.224      1477.3833    
    262000   3497.8951     -577.5416       0             -534.58845      5707.291       1499.4055    
    263000   3605.199      -575.11617      0             -530.84536     -20327.095      1515.3872    
    264000   3564.1975     -577.44031      0             -533.67298      8203.5136      1545.8211    
    265000   4153.4761     -579.12731      0             -528.12381     -17809.44       1491.9916    
    266000   3727.411      -577.77221      0             -532.00067     -32630.595      1518.2957    
    267000   3760.2125     -575.29808      0             -529.12375     -36467.185      1512.4885    
    268000   3793.8427     -586.29848      0             -539.71118      9697.749       1415.2228    
    269000   3536.3393     -585.43185      0             -542.00661      21309.142      1380.8896    
    270000   3662.8613     -578.00165      0             -533.02277      20343.834      1373.2432    
    271000   3624.7804     -580.4576       0             -535.94633      13831.426      1387.4177    
    272000   3499.0741     -585.52851      0             -542.56088      14043.48       1466.5034    
    273000   3898.2157     -582.11278      0             -534.2438      -8842.1638      1428.4635    
    274000   2700.9743     -584.21746      0             -551.05027     -11038.672      1448.2548    
    275000   3288.1499     -580.07583      0             -539.69829      20115.269      1451.446     
    276000   3777.7465     -575.50941      0             -529.11976      41815.409      1492.5458    
    277000   3304.3941     -585.71759      0             -545.14058     -23553.049      1487.7396    
    278000   3607.9592     -577.58194      0             -533.27723     -2575.0389      1508.4046    
    279000   3494.0715     -584.42594      0             -541.51974     -3310.041       1449.2913    
    280000   3622.961      -585.05251      0             -540.56359     -13575.603      1521.2538    
    281000   3906.2792     -578.00772      0             -530.03973     -24923.326      1552.5315    
    282000   3568.7056     -589.30155      0             -545.47887      44784.991      1500.88      
    283000   3497.7389     -584.05692      0             -541.10569     -15724.567      1485.4964    
    284000   3299.0914     -586.69672      0             -546.18482     -2653.5828      1487.5104    
    285000   3319.4913     -589.27185      0             -548.50945      5233.9059      1452.978     
    286000   3859.0105     -572.37786      0             -524.99032      9554.6789      1521.9796    
    287000   2716.7983     -576.00561      0             -542.6441      -25058.933      1476.4821    
    288000   3578.4452     -583.02128      0             -539.07899     -3416.8351      1478.9747    
    289000   3355.5349     -584.39743      0             -543.19242      15854.232      1380.4822    
    290000   3594.671      -580.94984      0             -536.80831     -4606.7926      1411.4141    
    291000   3453.7194     -586.1009       0             -543.69021      33273.148      1371.9611    
    292000   3269.1881     -592.59254      0             -552.44785      42619.855      1361.6083    
    293000   3488.5501     -589.54497      0             -546.70658      31392.129      1335.4613    
    294000   3360.6046     -585.34003      0             -544.07277      61451.128      1337.731     
    295000   3612.2124     -581.7512       0             -537.39427     -19477.221      1403.6857    
    296000   3490.9598     -590.17481      0             -547.30683      1020.6983      1432.2354    
    297000   3237.4498     -583.77871      0             -544.02376     -18562.565      1415.854     
    298000   3616.3555     -589.46046      0             -545.05265     -25773.342      1396.2475    
    299000   2423.4203     -585.95352      0             -556.19462      23266.286      1392.1422    
    300000   3878.1028     -587.25646      0             -539.63447      19521.301      1425.4304    
    301000   3084.7245     -589.57197      0             -551.69243     -34219.024      1478.0093    
    302000   3287.0709     -584.12203      0             -543.75774     -17505.401      1470.8021    
    303000   3591.4819     -585.35527      0             -541.2529      -31322.71       1431.0839    
    304000   3375.7667     -587.86981      0             -546.41637     -9075.9526      1404.4163    
    305000   3017.5617     -583.33181      0             -546.27702     -27411.253      1407.3678    
    306000   3076.3355     -587.33842      0             -549.5619      -22743.199      1413.8266    
    307000   2747.6033     -590.69463      0             -556.95485      3006.4401      1376.2       
    308000   3207.1013     -586.73957      0             -547.35728     -1721.8477      1304.0417    
    309000   2676.0489     -587.94538      0             -555.08427      29534.563      1379.9155    
    310000   3475.721      -590.7864       0             -548.10554     -494.05931      1356.1679    
    311000   3351.613      -585.46677      0             -544.30993      24792.924      1340.0155    
    312000   3032.1496     -587.68386      0             -550.44993      11982.821      1369.1477    
    313000   3158.9851     -585.00113      0             -546.2097      -17312.262      1372.7501    
    314000   2869.0404     -586.12924      0             -550.89824      8916.2777      1385.9144    
    315000   2838.2481     -591.50961      0             -556.65674     -20400.957      1407.1493    
    316000   3211.1211     -586.77882      0             -547.34717      14881.983      1424.8384    
    317000   2979.6731     -588.98219      0             -552.39266     -11159.718      1307.8187    
    318000   3292.0808     -585.0752       0             -544.64939      28265.865      1327.9765    
    319000   2854.5456     -587.97691      0             -552.9239      -3951.6987      1322.4595    
    320000   2897.0131     -585.56514      0             -549.99065     -14810.22       1387.7337    
Loop time of 6.07113 on 1 procs for 80000 steps with 96 atoms

Performance: 1138.502 ns/day, 0.021 hours/ns, 13177.111 timesteps/s, 1.265 Matom-step/s
99.1% CPU use with 1 MPI tasks x no OpenMP threads

MPI task timing breakdown:
Section |  min time  |  avg time  |  max time  |%varavg| %total
---------------------------------------------------------------
Pair    | 5.0598     | 5.0598     | 5.0598     |   0.0 | 83.34
Bond    | 0.002279   | 0.002279   | 0.002279   |   0.0 |  0.04
Neigh   | 0.34772    | 0.34772    | 0.34772    |   0.0 |  5.73
Comm    | 0.19946    | 0.19946    | 0.19946    |   0.0 |  3.29
Output  | 0.0092149  | 0.0092149  | 0.0092149  |   0.0 |  0.15
Modify  | 0.42207    | 0.42207    | 0.42207    |   0.0 |  6.95
Other   |            | 0.0306     |            |       |  0.50

Nlocal:             96 ave          96 max          96 min
Histogram: 1 0 0 0 0 0 0 0 0 0
Nghost:            544 ave         544 max         544 min
Histogram: 1 0 0 0 0 0 0 0 0 0
Neighs:              0 ave           0 max           0 min
Histogram: 1 0 0 0 0 0 0 0 0 0
FullNghs:         3038 ave        3038 max        3038 min
Histogram: 1 0 0 0 0 0 0 0 0 0

Total # of neighbors = 3038
Ave neighs/atom = 31.645833
Ave special neighs/atom = 0
Neighbor list builds = 2827
Dangerous builds = 0

fix npt1 all npt temp 3000 3000 0.1 iso 0 0 1
run 80000
Per MPI rank memory allocation (min/avg/max) = 8.549 | 8.549 | 8.549 Mbytes
   Step          Temp          E_pair         E_mol          TotEng         Press          Volume    
    320000   2897.0131     -585.56514      0             -549.99065     -14810.22       1387.7337    
    321000   2679.7014     -586.46653      0             -553.56057     -21787.371      1400.7457    
    322000   3100.244      -587.18679      0             -549.11668     -3467.126       1414.8212    
    323000   2998.9546     -580.5683       0             -543.742       -36407.88       1427.1656    
    324000   2646.1599     -585.43124      0             -552.93715     -5549.1728      1328.6925    
    325000   3054.1572     -581.09806      0             -543.59388      3326.1245      1342.6896    
    326000   2913.9435     -588.79112      0             -553.00873      1140.4006      1381.8805    
    327000   3322.247      -586.64135      0             -545.84511     -2719.0639      1364.3097    
    328000   3096.8305     -591.42566      0             -553.39747      1689.708       1382.9257    
    329000   3113.626      -582.90682      0             -544.67238      4055.2835      1350.9438    
    330000   3167.6139     -584.53972      0             -545.64233      9398.5681      1368.1289    
    331000   2855.9776     -588.72034      0             -553.64975      17414.2        1337.0391    
    332000   2862.3728     -593.22379      0             -558.07467     -5259.0715      1391.9202    
    333000   3161.0008     -582.085        0             -543.26882     -40022.376      1373.0165    
    334000   2819.3397     -586.55174      0             -551.93105     -26376.834      1380.1134    
    335000   2953.8108     -587.69171      0             -551.41976      15299.655      1365.0165    
    336000   3395.8515     -586.57037      0             -544.87028      3545.4738      1376.5636    
    337000   2896.6521     -589.08684      0             -553.51678      34408.575      1371.0868    
    338000   3064.4879     -584.84073      0             -547.2097       9415.0065      1372.0785    
    339000   3096.8192     -588.63903      0             -550.61098      25093.886      1305.1074    
    340000   2629.0789     -585.64202      0             -553.35768     -13762.807      1383.2894    
    341000   2754.4456     -593.92038      0             -560.09658     -22225.65       1380.1354    
    342000   3091.2868     -589.97129      0             -552.01118     -25933.985      1392.0004    
    343000   2828.076      -592.37602      0             -557.64806      31936.917      1309.007     
    344000   2735.8103     -594.81912      0             -561.22415     -5098.9336      1323.9102    
    345000   3347.739      -590.82108      0             -549.7118       10352.639      1371.4116    
    346000   2813.2        -592.94246      0             -558.39717      1413.471       1351.2346    
    347000   2836.0442     -586.46589      0             -551.64008      12779.013      1321.253     
    348000   2727.2499     -585.6295       0             -552.13965      4431.6157      1325.1339    
    349000   3236.2461     -587.54792      0             -547.80775     -24629.528      1335.6417    
    350000   3495.5404     -592.86281      0             -549.93857      14970.673      1309.3972    
    351000   3224.864      -592.54764      0             -552.94723      27840.859      1302.3257    
    352000   2654.8005     -588.95937      0             -556.35918     -26293.404      1401.3727    
    353000   2853.5004     -586.25044      0             -551.21027     -9802.6938      1398.3727    
    354000   2805.4976     -594.05633      0             -559.60562     -7362.6742      1339.9334    
    355000   3347.2788     -591.67265      0             -550.56902      63678.922      1314.8725    
    356000   3166.4042     -590.99531      0             -552.11277      28645.814      1321.6834    
    357000   2549.1883     -591.83869      0             -560.53539      14047.6        1361.8666    
    358000   3272.3787     -589.02716      0             -548.84329      2766.4927      1388.0798    
    359000   3003.4632     -594.62351      0             -557.74184      8260.5151      1393.7133    
    360000   2951.252      -589.14584      0             -552.90531     -2400.3298      1367.4984    
    361000   2898.1047     -587.67135      0             -552.08345     -32425.777      1385.831     
    362000   3278.091      -577.28249      0             -537.02847     -32129.398      1460.7517    
    363000   2916.791      -591.85768      0             -556.04032      19501.89       1413.8763    
    364000   2813.2082     -587.16895      0             -552.62356     -36931.802      1365.6775    
    365000   3333.9052     -591.37396      0             -550.43456     -26197.905      1325.1226    
    366000   3003.384      -588.11365      0             -551.23296      10354.452      1268.1631    
    367000   2768.5139     -589.97272      0             -555.97616     -50655.202      1323.9781    
    368000   2917.716      -587.94054      0             -552.11183      2888.837       1290.1384    
    369000   3165.2296     -587.6996       0             -548.83149      33472.243      1283.1072    
    370000   3234.242      -596.14893      0             -556.43337     -24438.508      1276.494     
    371000   3056.9828     -587.32227      0             -549.7834      -7546.3624      1386.2872    
    372000   2902.8461     -588.25552      0             -552.6094      -10091.014      1337.5144    
    373000   3229.889      -590.90212      0             -551.24001     -23384.103      1302.0366    
    374000   2946.2608     -596.99432      0             -560.81509     -18574.838      1294.9044    
    375000   3235.6122     -593.1277       0             -553.39531     -14677.133      1270.5335    
    376000   2715.5436     -594.8778       0             -561.53171      3590.3642      1311.9464    
    377000   3025.6316     -588.95292      0             -551.79903     -13004.017      1321.681     
    378000   2817.3832     -587.92373      0             -553.32707      10596.527      1328.0566    
    379000   2793.3163     -588.64514      0             -554.34402     -28818.161      1324.1827    
    380000   2601.693      -588.9093       0             -556.96126     -18799.786      1369.8304    
    381000   2625.8571     -588.42697      0             -556.1822      -17113.261      1338.2532    
    382000   3304.3007     -589.0844       0             -548.50853     -22371.667      1299.3888    
    383000   2947.5984     -594.54089      0             -558.34522      38239.049      1292.759     
    384000   2904.9853     -587.21004      0             -551.53765     -31290.768      1350.0767    
    385000   2975.375      -588.42148      0             -551.88473     -53511.795      1353.824     
    386000   2786.7916     -588.10396      0             -553.88295      9162.843       1326.1173    
    387000   3037.1044     -586.68414      0             -549.38937     -7998.7404      1340.4011    
    388000   2984.7343     -594.75027      0             -558.09859      27183.887      1222.401     
    389000   2798.6576     -591.50889      0             -557.14217      55832.041      1258.0665    
    390000   3387.7095     -592.67708      0             -551.07697     -36832.544      1312.1467    
    391000   2608.5869     -589.70121      0             -557.66851      1172.0045      1283.6053    
    392000   2642.0802     -591.22523      0             -558.78124      18768.105      1336.6376    
    393000   3058.3404     -586.02269      0             -548.46714     -23099.186      1286.7574    
    394000   2901.3209     -589.59761      0             -553.97022      43673.098      1257.0944    
    395000   3089.6177     -593.80767      0             -555.86805      42777.944      1279.9672    
    396000   3142.0148     -589.87525      0             -551.29221      10560.821      1283.3153    
    397000   2603.9432     -592.20565      0             -560.22998     -58397.976      1316.003     
    398000   3057.4822     -590.5468       0             -553.0018      -25652.268      1295.6675    
    399000   3010.3023     -591.90563      0             -554.93998     -6627.982       1315.2337    
    400000   2775.9568     -585.50658      0             -551.41863      3856.7711      1299.1854    
Loop time of 6.30937 on 1 procs for 80000 steps with 96 atoms

Performance: 1095.514 ns/day, 0.022 hours/ns, 12679.555 timesteps/s, 1.217 Matom-step/s
99.1% CPU use with 1 MPI tasks x no OpenMP threads

MPI task timing breakdown:
Section |  min time  |  avg time  |  max time  |%varavg| %total
---------------------------------------------------------------
Pair    | 5.3322     | 5.3322     | 5.3322     |   0.0 | 84.51
Bond    | 0.0023741  | 0.0023741  | 0.0023741  |   0.0 |  0.04
Neigh   | 0.31419    | 0.31419    | 0.31419    |   0.0 |  4.98
Comm    | 0.20375    | 0.20375    | 0.20375    |   0.0 |  3.23
Output  | 0.0080761  | 0.0080761  | 0.0080761  |   0.0 |  0.13
Modify  | 0.41887    | 0.41887    | 0.41887    |   0.0 |  6.64
Other   |            | 0.02986    |            |       |  0.47

Nlocal:             96 ave          96 max          96 min
Histogram: 1 0 0 0 0 0 0 0 0 0
Nghost:            576 ave         576 max         576 min
Histogram: 1 0 0 0 0 0 0 0 0 0
Neighs:              0 ave           0 max           0 min
Histogram: 1 0 0 0 0 0 0 0 0 0
FullNghs:         3300 ave        3300 max        3300 min
Histogram: 1 0 0 0 0 0 0 0 0 0

Total # of neighbors = 3300
Ave neighs/atom = 34.375
Ave special neighs/atom = 0
Neighbor list builds = 2524
Dangerous builds = 0

fix npt1 all npt temp 3000 2000 0.1 iso 0 0 1
run 80000
Per MPI rank memory allocation (min/avg/max) = 8.549 | 8.549 | 8.549 Mbytes
   Step          Temp          E_pair         E_mol          TotEng         Press          Volume    
    400000   2775.9568     -585.50658      0             -551.41863      3856.7711      1299.1854    
    401000   2448.0494     -591.41777      0             -561.35643     -3914.364       1318.2613    
    402000   2576.158      -589.0022       0             -557.36772     -18675.657      1303.6422    
    403000   2657.6038     -582.63801      0             -550.00339      23039.373      1316.3542    
    404000   2634.5824     -594.29946      0             -561.94754      12857.25       1290.6385    
    405000   2490.2933     -589.19967      0             -558.61958      23659.742      1280.7569    
    406000   2380.9452     -595.09153      0             -565.8542      -72780.28       1326.5406    
    407000   2987.8803     -588.98377      0             -552.29346     -1139.4228      1280.804     
    408000   3064.0364     -592.16024      0             -554.53475      14322.632      1324.5529    
    409000   3303.0549     -592.78269      0             -552.22212     -29403.618      1332.4906    
    410000   3136.1932     -595.46718      0             -556.95562      27280.384      1318.3639    
    411000   2799.4277     -599.38806      0             -565.01189      36366.353      1294.6087    
    412000   2672.4023     -588.07405      0             -555.25771      17618.877      1303.3869    
    413000   2728.9693     -595.06466      0             -561.5537      -13576.741      1338.8518    
    414000   2928.2545     -591.00252      0             -555.0444      -439.94731      1315.9148    
    415000   2975.2849     -589.8746       0             -553.33895      11398.093      1320.1387    
    416000   2547.63       -585.87742      0             -554.59325     -9165.6826      1378.2422    
    417000   2884.1183     -591.28663      0             -555.87048     -18410.355      1328.5349    
    418000   2917.5724     -590.01096      0             -554.18401     -13544.437      1279.7192    
    419000   2576.4287     -592.4909       0             -560.85309      7206.4202      1278.6089    
    420000   3378.7752     -596.023        0             -554.53261      28660.042      1240.5082    
    421000   2852.3425     -595.09367      0             -560.06772     -24688.55       1334.534     
    422000   2646.351      -593.84943      0             -561.353        20603.781      1283.7767    
    423000   2974.4566     -595.49011      0             -558.96464     -20928.014      1362.96      
    424000   2359.1621     -595.65706      0             -566.68722      4505.0673      1283.4934    
    425000   2848.513      -593.78013      0             -558.8012       11898.001      1273.6389    
    426000   3004.8022     -594.93063      0             -558.03252      19234.297      1286.4666    
    427000   2184.7319     -596.04022      0             -569.21233     -36818.3        1310.3094    
    428000   2697.9573     -595.38809      0             -562.25795      24284.813      1315.386     
    429000   2779.2821     -596.58052      0             -562.45173     -30888.775      1294.3167    
    430000   2847.1516     -595.35669      0             -560.39449     -2481.852       1277.8477    
    431000   2092.4013     -598.747        0             -573.05292      6230.0415      1314.8112    
    432000   2514.8775     -596.51434      0             -565.63236     -6148.4127      1333.9211    
    433000   2312.2559     -603.64379      0             -575.24995     -12579.404      1285.6612    
    434000   2774.7432     -600.515        0             -566.44194     -9186.7536      1261.9029    
    435000   2476.9502     -597.22171      0             -566.80547      9423.9498      1274.7602    
    436000   2465.9463     -598.36606      0             -568.08494     -36916.714      1297.2819    
    437000   2391.7059     -599.41668      0             -570.04722      2016.1138      1248.7524    
    438000   2543.5775     -603.63526      0             -572.40086     -20295.168      1257.8692    
    439000   2794.8013     -595.46762      0             -561.14826     -25460.109      1316.4798    
    440000   2612.4166     -596.76977      0             -564.69005     -29259.144      1331.5922    
    441000   2409.5161     -601.97507      0             -572.3869       191.68666      1278.0679    
    442000   2749.1336     -598.54507      0             -564.7865       7977.9388      1235.6629    
    443000   2423.4135     -600.19832      0             -570.4395      -1829.5174      1239.4754    
    444000   2296.3735     -598.11777      0             -569.91896      43043.412      1236.6274    
    445000   2472.4423     -597.55582      0             -567.19494     -11492.731      1296.1975    
    446000   2363.0177     -593.82621      0             -564.80903     -10598.242      1369.2577    
    447000   2160.2422     -601.53528      0             -575.00813     -42675.715      1312.1861    
    448000   2689.1281     -600.60698      0             -567.58525     -17357.316      1279.3547    
    449000   2402.231      -601.05214      0             -571.55343     -4601.9065      1281.9226    
    450000   2294.0689     -600.49232      0             -572.32181     -22553.614      1283.5128    
    451000   2742.1276     -602.87319      0             -569.20065      8734.507       1281.7046    
    452000   2468.5582     -602.95632      0             -572.64313     -2465.4496      1274.9289    
    453000   2657.8558     -602.87672      0             -570.23901     -6034.8447      1243.4893    
    454000   2323.0858     -603.04         0             -574.51317      25582.961      1232.8528    
    455000   2034.2185     -605.69738      0             -580.71776      42263.06       1250.2235    
    456000   2419.8457     -601.83417      0             -572.11915      15948.184      1249.7587    
    457000   2156.1512     -607.52209      0             -581.04517     -32428.158      1280.9872    
    458000   2379.0903     -602.24609      0             -573.03155     -24430.129      1308.0456    
    459000   2053.3083     -602.18205      0             -576.96801     -27977.491      1315.2068    
    460000   2050.6858     -606.85584      0             -581.674       -20368.589      1274.9382    
    461000   2228.2865     -601.41894      0             -574.05622      27529.51       1202.7721    
    462000   2284.0761     -607.92173      0             -579.87393      4242.9661      1248.0568    
    463000   2241.7964     -605.08297      0             -577.55435      10062.963      1253.0211    
    464000   2149.6221     -608.54133      0             -582.14459     -6224.8837      1242.5455    
    465000   2090.797      -603.57812      0             -577.90373      11555.516      1282.9684    
    466000   2258.7377     -603.451        0             -575.71435     -22969.666      1293.2926    
    467000   2291.3623     -605.09513      0             -576.95785      27384.956      1254.1095    
    468000   1906.1706     -607.10396      0             -583.69673     -11821.17       1256.8128    
    469000   2597.9322     -608.66247      0             -576.76061      92.556039      1242.2069    
    470000   2466.6511     -604.87948      0             -574.58971     -32777.781      1280.8409    
    471000   2014.0341     -602.11114      0             -577.37937      11541.328      1259.9815    
    472000   1945.9009     -604.71917      0             -580.82407      29008.484      1227.2396    
    473000   2307.2397     -605.32192      0             -576.98968      10044.415      1206.0815    
    474000   2020.6165     -608.7843       0             -583.97171     -5772.2458      1263.1911    
    475000   2361.6055     -605.51033      0             -576.51049     -31035.288      1251.7871    
    476000   2184.3807     -607.37122      0             -580.54765      1511.7411      1228.7484    
    477000   1721.8955     -606.97811      0             -585.83372     -15316.57       1211.4929    
    478000   2246.474      -610.62246      0             -583.0364       50459.928      1178.386     
    479000   1744.3696     -607.26023      0             -585.83987     -30082.992      1276.3862    
    480000   2292.813      -608.46598      0             -580.31089      44425.759      1237.2574    
Loop time of 6.61044 on 1 procs for 80000 steps with 96 atoms

Performance: 1045.618 ns/day, 0.023 hours/ns, 12102.061 timesteps/s, 1.162 Matom-step/s
99.3% CPU use with 1 MPI tasks x no OpenMP threads

MPI task timing breakdown:
Section |  min time  |  avg time  |  max time  |%varavg| %total
---------------------------------------------------------------
Pair    | 5.6226     | 5.6226     | 5.6226     |   0.0 | 85.06
Bond    | 0.0025693  | 0.0025693  | 0.0025693  |   0.0 |  0.04
Neigh   | 0.28101    | 0.28101    | 0.28101    |   0.0 |  4.25
Comm    | 0.21298    | 0.21298    | 0.21298    |   0.0 |  3.22
Output  | 0.010474   | 0.010474   | 0.010474   |   0.0 |  0.16
Modify  | 0.44928    | 0.44928    | 0.44928    |   0.0 |  6.80
Other   |            | 0.03153    |            |       |  0.48

Nlocal:             96 ave          96 max          96 min
Histogram: 1 0 0 0 0 0 0 0 0 0
Nghost:            584 ave         584 max         584 min
Histogram: 1 0 0 0 0 0 0 0 0 0
Neighs:              0 ave           0 max           0 min
Histogram: 1 0 0 0 0 0 0 0 0 0
FullNghs:         3370 ave        3370 max        3370 min
Histogram: 1 0 0 0 0 0 0 0 0 0

Total # of neighbors = 3370
Ave neighs/atom = 35.104167
Ave special neighs/atom = 0
Neighbor list builds = 2164
Dangerous builds = 0

fix npt1 all npt temp 2000 2000 0.1 iso 0 0 1
run 80000
Per MPI rank memory allocation (min/avg/max) = 8.549 | 8.549 | 8.549 Mbytes
   Step          Temp          E_pair         E_mol          TotEng         Press          Volume    
    480000   2292.813      -608.46598      0             -580.31089      44425.759      1237.2574    
    481000   2311.3229     -607.19128      0             -578.8089      -2027.6768      1256.4286    
    482000   1927.2189     -607.01316      0             -583.34746      3768.1772      1216.7852    
    483000   1996.6083     -604.68233      0             -580.16455     -5297.1542      1256.3253    
    484000   1983.6612     -612.40047      0             -588.04168     -20301.025      1268.6131    
    485000   2029.4838     -604.53899      0             -579.61751     -3778.39        1230.7487    
    486000   1948.7966     -609.52892      0             -585.59826     -4935.6255      1260.5072    
    487000   2101.802      -608.35267      0             -582.54315      48576.935      1189.3602    
    488000   2029.5627     -604.1489       0             -579.22645     -799.61894      1285.0855    
    489000   1833.2326     -606.98186      0             -584.47029     -42886.078      1268.4636    
    490000   1953.1218     -608.56618      0             -584.5824       36699.421      1218.4392    
    491000   2383.4517     -606.44048      0             -577.17238     -49466.952      1272.5333    
    492000   1749.922      -607.02973      0             -585.54118     -12590.927      1264.9692    
    493000   1802.5554     -610.16532      0             -588.03045     -12331.803      1232.0194    
    494000   1869.2938     -607.02221      0             -584.06781     -49837.238      1293.1785    
    495000   2085.315      -603.79588      0             -578.18881     -18136.895      1246.0569    
    496000   1865.5722     -611.31607      0             -588.40738     -28086.054      1228.3863    
    497000   2029.267      -606.48395      0             -581.56514      18528.376      1248.0414    
    498000   2001.2793     -608.60922      0             -584.03408      20152.141      1221.7706    
    499000   2041.64       -607.05415      0             -581.9834      -21015.248      1283.2814    
    500000   1943.7851     -609.64311      0             -585.77399     -53130.341      1267.5858    
    501000   2115.2661     -607.31979      0             -581.34493      3236.9531      1258.7351    
    502000   1774.1256     -608.64362      0             -586.85787     -8756.2224      1252.4329    
    503000   1802.1263     -605.08728      0             -582.95768     -5790.4076      1242.3206    
    504000   2039.383      -604.66331      0             -579.62027     -6235.507       1288.3258    
    505000   1766.7296     -605.74989      0             -584.05496     -434.469        1269.1193    
    506000   1983.8768     -606.47225      0             -582.11081     -8654.4903      1269.8858    
    507000   1940.5105     -601.18234      0             -577.35343      9026.363       1309.4103    
    508000   1674.6483     -608.37698      0             -587.81278      873.31837      1259.042     
    509000   1929.2737     -604.66691      0             -580.97598      64151.735      1239.472     
    510000   2122.5897     -605.1973       0             -579.13251     -22088.325      1295.6691    
    511000   1976.5873     -604.20741      0             -579.93548     -26128.247      1299.7388    
    512000   2029.0852     -602.67928      0             -577.76269     -1601.6242      1277.6958    
    513000   1842.8989     -606.88522      0             -584.25495     -3830.8635      1279.6929    
    514000   2388.9144     -604.32194      0             -574.98676     -2200.6191      1307.379     
    515000   1938.292      -605.54075      0             -581.73907      8772.4526      1262.1666    
    516000   1912.6338     -605.86471      0             -582.37811     -11652.765      1291.0647    
    517000   2224.4941     -607.02331      0             -579.70716      5880.4819      1250.4671    
    518000   1975.8189     -608.89977      0             -584.63728     -41532.293      1284.2175    
    519000   2122.8477     -603.54408      0             -577.47611     -4582.3367      1267.8886    
    520000   2012.389      -607.57023      0             -582.85867      16366.498      1216.202     
    521000   1876.4879     -601.16277      0             -578.12004      13035.448      1278.349     
    522000   1915.328      -605.52611      0             -582.00643     -14890.38       1299.1797    
    523000   2223.2752     -608.86865      0             -581.56747      9592.0717      1258.1658    
    524000   1972.068      -607.2016       0             -582.98517      7389.2271      1270.3719    
    525000   1919.2242     -604.26368      0             -580.69615      25902.436      1271.8717    
    526000   1701.3089     -607.81152      0             -586.91994      20186.912      1264.7396    
    527000   2063.2764     -608.99392      0             -583.65747      6690.2623      1270.1365    
    528000   2259.5185     -605.15454      0             -577.4083      -29006.612      1282.1233    
    529000   2229.929      -605.49026      0             -578.10737      2396.2371      1307.6049    
    530000   1982.7671     -607.00091      0             -582.6531      -2130.3778      1300.8336    
    531000   1954.8987     -610.49608      0             -586.49048      34695.231      1218.7207    
    532000   2218.4496     -606.05843      0             -578.81651     -10784.566      1287.9666    
    533000   1897.4922     -605.30635      0             -582.00569      11066.66       1301.4452    
    534000   1930.0343     -606.70799      0             -583.00772      13568.638      1261.5633    
    535000   1775.5923     -606.05083      0             -584.24706      472.26523      1227.2281    
    536000   1896.7959     -602.67991      0             -579.3878       23422.233      1276.487     
    537000   2135.1825     -605.38531      0             -579.16588     -15716.984      1299.8332    
    538000   1820.3763     -605.07475      0             -582.72105      37995.39       1240.2233    
    539000   1893.103      -606.35035      0             -583.10359     -15926.671      1249.6112    
    540000   2332.4289     -605.40671      0             -576.76515      18145.339      1288.2858    
    541000   2093.3648     -609.0609       0             -583.35498      6081.3787      1285.5734    
    542000   2020.3463     -604.31169      0             -579.50242      3673.54        1253.1       
    543000   1989.6973     -605.38288      0             -580.94997     -4512.3834      1256.3224    
    544000   2013.9553     -601.79935      0             -577.06856     -7975.3726      1308.0449    
    545000   2058.3294     -605.41037      0             -580.13468     -1332.4923      1307.8901    
    546000   2092.6778     -607.36827      0             -581.67078      32234.037      1224.7642    
    547000   1997.7247     -606.22827      0             -581.69678      21776.06       1248.8885    
    548000   1953.9051     -602.37946      0             -578.38607      37.663059      1322.023     
    549000   2313.6147     -607.49808      0             -579.08755     -12950.717      1341.9105    
    550000   1868.7028     -607.79624      0             -584.8491      -18106.498      1293.6176    
    551000   2065.63       -608.20063      0             -582.83528      16977.107      1267.9498    
    552000   2104.9066     -600.45832      0             -574.61067     -25301.798      1330.4847    
    553000   2100.3182     -602.97932      0             -577.18801      20981.249      1273.2719    
    554000   1717.1174     -608.92416      0             -587.83845     -3033.7732      1290.5545    
    555000   1922.6376     -600.80986      0             -577.20043      18778.963      1306.4885    
    556000   1860.9156     -605.20796      0             -582.35645     -25945.916      1296.5543    
    557000   1799.8392     -600.897        0             -578.79549      17298.506      1316.4198    
    558000   1892.6998     -606.20866      0             -582.96685     -4269.2042      1312.5459    
    559000   2100.8409     -604.61439      0             -578.81666      37964.058      1268.7832    
    560000   1803.4982     -603.29475      0             -581.14831      2831.8769      1329.2672    
Loop time of 6.41018 on 1 procs for 80000 steps with 96 atoms

Performance: 1078.285 ns/day, 0.022 hours/ns, 12480.155 timesteps/s, 1.198 Matom-step/s
98.6% CPU use with 1 MPI tasks x no OpenMP threads

MPI task timing breakdown:
Section |  min time  |  avg time  |  max time  |%varavg| %total
---------------------------------------------------------------
Pair    | 5.4331     | 5.4331     | 5.4331     |   0.0 | 84.76
Bond    | 0.0024449  | 0.0024449  | 0.0024449  |   0.0 |  0.04
Neigh   | 0.24292    | 0.24292    | 0.24292    |   0.0 |  3.79
Comm    | 0.21007    | 0.21007    | 0.21007    |   0.0 |  3.28
Output  | 0.0094085  | 0.0094085  | 0.0094085  |   0.0 |  0.15
Modify  | 0.48157    | 0.48157    | 0.48157    |   0.0 |  7.51
Other   |            | 0.03063    |            |       |  0.48

Nlocal:             96 ave          96 max          96 min
Histogram: 1 0 0 0 0 0 0 0 0 0
Nghost:            556 ave         556 max         556 min
Histogram: 1 0 0 0 0 0 0 0 0 0
Neighs:              0 ave           0 max           0 min
Histogram: 1 0 0 0 0 0 0 0 0 0
FullNghs:         3188 ave        3188 max        3188 min
Histogram: 1 0 0 0 0 0 0 0 0 0

Total # of neighbors = 3188
Ave neighs/atom = 33.208333
Ave special neighs/atom = 0
Neighbor list builds = 1855
Dangerous builds = 0

fix npt1 all npt temp 2000 1000 0.1 iso 0 0 1
run 80000
Per MPI rank memory allocation (min/avg/max) = 8.55 | 8.55 | 8.55 Mbytes
   Step          Temp          E_pair         E_mol          TotEng         Press          Volume    
    560000   1803.4982     -603.29475      0             -581.14831      2831.8769      1329.2672    
    561000   2061.633      -604.41559      0             -579.09932     -21695.698      1316.8442    
    562000   1999.7422     -604.25535      0             -579.69909     -26683.838      1306.0678    
    563000   2039.7759     -606.65214      0             -581.60427      26741.478      1253.1903    
    564000   1598.2036     -606.76339      0             -587.13791     -35046.289      1305.2923    
    565000   2042.4834     -604.87603      0             -579.79492      25736.032      1271.8656    
    566000   1829.1145     -604.07576      0             -581.61476     -23974.019      1370.4794    
    567000   2188.3112     -610.51329      0             -583.64146      17902.188      1288.9457    
    568000   1772.83       -608.48199      0             -586.71214      23544.541      1250.3979    
    569000   2035.4911     -608.4669       0             -583.47166     -15706.915      1296.18      
    570000   1775.3961     -605.81361      0             -584.01226      16263.779      1333.7716    
    571000   1667.6622     -605.9554       0             -585.47699      20059.99       1289.4257    
    572000   1915.495      -607.29111      0             -583.76938      12008.393      1290.8298    
    573000   1981.0671     -609.35208      0             -585.02515     -261.44008      1304.7411    
    574000   1813.0523     -605.54161      0             -583.27785      10935.631      1290.4248    
    575000   1685.7953     -608.78871      0             -588.08763     -6155.1315      1254.416     
    576000   2068.9664     -607.64359      0             -582.23727      21422.613      1274.4011    
    577000   1813.6372     -607.22481      0             -584.95386     -21225.127      1320.2491    
    578000   1880.1404     -608.98521      0             -585.89763      22067.535      1246.0437    
    579000   1632.8095     -608.80191      0             -588.75148     -18379.194      1278.0817    
    580000   1758.2862     -608.79885      0             -587.2076      -6311.6207      1297.5375    
    581000   2005.7572     -609.63077      0             -585.00064     -340.83744      1244.8378    
    582000   1432.004      -609.68293      0             -592.09833     -4470.195       1273.1332    
    583000   1748.9983     -609.57163      0             -588.09443     -28684.431      1293.2503    
    584000   1462.2216     -610.76778      0             -592.81212      9388.9394      1267.7421    
    585000   1827.9643     -613.59509      0             -591.14821      9619.2302      1263.7542    
    586000   1626.8014     -607.56537      0             -587.58872      9638.8517      1268.9506    
    587000   1730.1481     -608.93226      0             -587.68654     -11416.797      1284.4573    
    588000   1628.0062     -609.8792       0             -589.88775     -15383.986      1298.3894    
    589000   1608.929      -610.19292      0             -590.43574     -659.40175      1223.0119    
    590000   1571.4446     -612.90095      0             -593.60406      567.08707      1290.6125    
    591000   1466.9327     -610.09431      0             -592.0808       10869.447      1317.3129    
    592000   1701.3639     -609.46588      0             -588.57362     -9138.0637      1250.0894    
    593000   1404.3928     -611.22174      0             -593.9762      -28986.818      1283.599     
    594000   1736.4329     -606.60742      0             -585.28452     -32198.765      1314.3513    
    595000   1530.2999     -612.12472      0             -593.33308     -6692.5075      1263.6394    
    596000   1846.6256     -612.35134      0             -589.67531     -19407.773      1298.4214    
    597000   1535.0286     -613.09766      0             -594.24795     -39043.948      1285.9969    
    598000   1518.0703     -610.63567      0             -591.99421     -8136.9426      1261.5803    
    599000   1276.1684     -612.02702      0             -596.35604     -49011.666      1331.7092    
    600000   1495.0076     -610.8479       0             -592.48964      1280.4218      1303.1576    
    601000   1522.3973     -613.47402      0             -594.77942      8702.7869      1259.7209    
    602000   1448.8435     -613.44893      0             -595.65754     -21065.18       1289.9555    
    603000   1567.4261     -613.60538      0             -594.35784     -17680.829      1300.861     
    604000   1400.7977     -617.28581      0             -600.08442      63185.645      1262.2663    
    605000   1595.3084     -613.89108      0             -594.30115     -8431.2177      1286.2645    
    606000   1439.1392     -616.13916      0             -598.46694     -9638.8054      1299.2267    
    607000   1453.0677     -613.31621      0             -595.47296     -675.73508      1258.7553    
    608000   1316.3135     -615.75454      0             -599.59059     -5463.8153      1294.9225    
    609000   1312.0647     -612.84848      0             -596.7367      -5955.7988      1293.9664    
    610000   1417.9776     -613.97187      0             -596.55952      21031.94       1263.5299    
    611000   1415.9822     -613.54892      0             -596.16107      15048.833      1266.143     
    612000   1405.1586     -614.53573      0             -597.28078     -11056.391      1306.0667    
    613000   1278.9173     -614.2627       0             -598.55797      6086.4401      1296.1792    
    614000   1312.6892     -612.34544      0             -596.226        20728.185      1251.653     
    615000   1112.2969     -615.04827      0             -601.38958     -4680.5928      1267.6301    
    616000   1220.0395     -614.37214      0             -599.3904       8523.6907      1284.0978    
    617000   1171.8778     -616.21473      0             -601.8244       3518.9331      1262.1489    
    618000   1175.6173     -612.15446      0             -597.71821      12575.405      1271.1956    
    619000   1260.2276     -616.37003      0             -600.89479      6098.4244      1265.2436    
    620000   1347.546      -615.33727      0             -598.7898       29785.901      1270.8036    
    621000   1241.4868     -618.36987      0             -603.12476     -577.78903      1310.0786    
    622000   1304.3064     -616.47409      0             -600.45759      18568.408      1253.596     
    623000   1193.9467     -617.53033      0             -602.86901      22762.105      1244.7885    
    624000   1220.7175     -618.05542      0             -603.06536     -3140.1689      1271.9951    
    625000   1241.7173     -616.28457      0             -601.03664      6671.5217      1295.1951    
    626000   1180.3185     -618.61602      0             -604.12205     -2796.0296      1256.6244    
    627000   1051.7653     -618.25653      0             -605.34115      11557.908      1259.9928    
    628000   1283.6352     -619.11881      0             -603.35614      25467.824      1250.9808    
    629000   1172.3615     -617.57061      0             -603.17434     -1528.0568      1267.54      
    630000   1114.856      -618.47549      0             -604.78538     -1963.804       1251.6845    
[...]
Histogram: 1 0 0 0 0 0 0 0 0 0
Neighs:              0 ave           0 max           0 min
Histogram: 1 0 0 0 0 0 0 0 0 0
FullNghs:         3474 ave        3474 max        3474 min
Histogram: 1 0 0 0 0 0 0 0 0 0

Total # of neighbors = 3474
Ave neighs/atom = 36.1875
Ave special neighs/atom = 0
Neighbor list builds = 133
Dangerous builds = 0


fix npt1 all npt temp 500 10 0.1 iso 0 0 1
run 80000
Per MPI rank memory allocation (min/avg/max) = 8.55 | 8.55 | 8.55 Mbytes
   Step          Temp          E_pair         E_mol          TotEng         Press          Volume    
    880000   487.50354     -625.8892       0             -619.90279     -9382.1613      1232.3874    
    881000   526.70136     -626.92374      0             -620.456        302.17385      1210.9241    
    882000   537.62622     -627.20068      0             -620.59878     -1462.9197      1231.7624    
    883000   412.40393     -626.64649      0             -621.58228     -5339.1791      1227.57      
    884000   540.43839     -627.45183      0             -620.8154      -13790.367      1219.7513    
    885000   488.09182     -626.94418      0             -620.95055     -4190.6622      1206.2446    
    886000   476.13678     -627.12162      0             -621.27479     -1138.2114      1216.8291    
    887000   505.38789     -627.38284      0             -621.17683     -13260.061      1231.4063    
    888000   439.33804     -626.88062      0             -621.48567     -8341.2809      1199.6264    
    889000   411.65481     -626.76677      0             -621.71177     -9031.9231      1212.2292    
    890000   438.5687      -627.05119      0             -621.66569      16094.512      1206.4537    
    891000   439.69342     -627.39498      0             -621.99567     -1087.0763      1213.619     
    892000   456.06682     -627.32858      0             -621.72821      1869.1766      1215.4974    
    893000   385.49861     -628.02003      0             -623.28622      15680.411      1204.8293    
    894000   376.97045     -627.07024      0             -622.44115      8033.1027      1222.6594    
    895000   412.48173     -627.49724      0             -622.43209      991.41064      1209.3135    
    896000   354.79246     -628.26402      0             -623.90727      152.88929      1215.293     
    897000   399.61177     -627.90035      0             -622.99323      5617.861       1206.2106    
    898000   393.39945     -627.82419      0             -622.99336      5393.5605      1216.4575    
    899000   385.4507      -628.1046       0             -623.37137     -3415.4673      1219.0856    
    900000   411.29347     -627.11009      0             -622.05952      11083.778      1200.7081    
    901000   378.04224     -627.99374      0             -623.35149      7600.4585      1211.3178    
    902000   341.65049     -628.32731      0             -624.13194     -7536.6193      1212.7477    
    903000   366.04168     -628.42818      0             -623.9333      -6539.3834      1202.9307    
    904000   380.67338     -627.95429      0             -623.27973     -482.82599      1205.8265    
    905000   328.05622     -628.50307      0             -624.47464     -9003.4715      1214.5206    
    906000   333.81893     -628.72667      0             -624.62747      3897.4598      1195.0792    
    907000   396.81225     -628.49059      0             -623.61785      8582.5438      1190.2944    
    908000   353.27504     -628.98289      0             -624.64477     -14427.945      1209.6391    
    909000   272.22469     -628.69116      0             -625.34832     -2730.7675      1214.8967    
    910000   357.92218     -628.07194      0             -623.67676     -8343.4257      1207.5004    
    911000   306.29961     -628.91987      0             -625.1586      -5320.304       1215.9282    
    912000   326.7786      -629.27467      0             -625.26192     -6892.9175      1222.4178    
    913000   253.1194      -628.51722      0             -625.40899      1090.8601      1191.8563    
    914000   282.88699     -629.12449      0             -625.65072      11588.713      1214.3471    
    915000   261.99259     -628.95364      0             -625.73645      4022.4481      1199.3092    
    916000   301.14821     -629.34756      0             -625.64954     -704.74655      1225.6708    
    917000   267.13177     -629.72727      0             -626.44696     -2361.1842      1211.3908    
    918000   270.92278     -629.58897      0             -626.26211      225.72873      1196.5141    
    919000   286.01166     -629.41627      0             -625.90413     -21482.307      1226.2268    
    920000   267.87038     -630.26572      0             -626.97635      1767.3079      1216.0202    
    921000   283.53587     -629.7104       0             -626.22866      7817.5881      1193.9155    
    922000   213.5002      -629.50301      0             -626.88129     -1682.639       1215.1031    
    923000   239.46527     -630.20961      0             -627.26904      5066.9103      1205.5126    
    924000   230.95917     -629.91646      0             -627.08034     -145.1014       1199.2817    
    925000   220.99403     -630.22001      0             -627.50627     -3293.1049      1211.7603    
    926000   237.71973     -630.56201      0             -627.64288      12263.511      1218.1489    
    927000   232.93917     -630.47202      0             -627.61159      3088.5837      1194.7896    
    928000   188.61308     -630.14782      0             -627.83171      1388.5637      1205.8806    
    929000   209.75412     -630.48494      0             -627.90922      19349.019      1194.3004    
    930000   216.04654     -630.5868       0             -627.93381     -2518.8702      1209.7977    
    931000   188.24866     -630.76587      0             -628.45423      12122.804      1202.7778    
    932000   167.78816     -630.31718      0             -628.25679      2254.1433      1203.8411    
    933000   185.00276     -630.69528      0             -628.4235      -5185.8947      1210.5393    
    934000   198.20588     -630.6346       0             -628.20069      13587.527      1204.838     
    935000   174.13388     -631.00392      0             -628.8656      -1211.1407      1200.6083    
    936000   171.83923     -630.86445      0             -628.75432     -11299.333      1213.7817    
    937000   139.33587     -631.00905      0             -629.29804     -8523.4774      1195.1418    
    938000   161.36873     -630.88395      0             -628.90239     -6497.7195      1208.2187    
    939000   137.60394     -630.94212      0             -629.25238     -2304.1881      1209.5974    
    940000   123.17845     -631.10152      0             -629.58892      3560.2511      1201.6192    
    941000   149.32517     -631.46136      0             -629.62769      2337.2811      1191.5073    
    942000   113.63518     -631.53417      0             -630.13876      1040.0331      1201.7486    
    943000   97.570157     -631.46523      0             -630.2671       18.19413       1192.175     
    944000   107.34645     -631.48013      0             -630.16195     -1305.5248      1203.2986    
    945000   106.63306     -631.69148      0             -630.38205      7725.6608      1198.5048    
    946000   104.55362     -631.7982       0             -630.51431     -879.33825      1204.7397    
    947000   87.731211     -631.88409      0             -630.80678     -4879.3268      1195.0308    
    948000   86.882981     -631.93092      0             -630.86402      422.75035      1199.0925    
    949000   75.913524     -631.99322      0             -631.06102     -805.61623      1201.975     
    950000   74.182168     -632.14956      0             -631.23862      3993.3555      1201.356     
    951000   63.09823      -632.15713      0             -631.3823      -478.88044      1202.2639    
    952000   64.378066     -632.20897      0             -631.41843      2451.5524      1198.5864    
    953000   56.132947     -632.3381       0             -631.64881     -5065.571       1204.499     
    954000   53.691294     -632.32281      0             -631.6635       2251.051       1209.3763    
    955000   39.860471     -632.42769      0             -631.93821      9975.9219      1203.2738    
    956000   36.508745     -632.50467      0             -632.05636     -1818.7284      1200.2017    
    957000   28.048202     -632.59047      0             -632.24604     -1809.4437      1193.7828    
    958000   20.366138     -632.64619      0             -632.3961      -4280.6076      1199.5518    
    959000   14.793857     -632.74218      0             -632.56052     -2451.9155      1193.515     
    960000   12.451855     -632.83532      0             -632.68242      832.16011      1198.8823    
Loop time of 5.98089 on 1 procs for 80000 steps with 96 atoms

Performance: 1155.682 ns/day, 0.021 hours/ns, 13375.946 timesteps/s, 1.284 Matom-step/s
98.9% CPU use with 1 MPI tasks x no OpenMP threads

MPI task timing breakdown:
Section |  min time  |  avg time  |  max time  |%varavg| %total
---------------------------------------------------------------
Pair    | 5.2802     | 5.2802     | 5.2802     |   0.0 | 88.28
Bond    | 0.0023358  | 0.0023358  | 0.0023358  |   0.0 |  0.04
Neigh   | 0.0054847  | 0.0054847  | 0.0054847  |   0.0 |  0.09
Comm    | 0.19242    | 0.19242    | 0.19242    |   0.0 |  3.22
Output  | 0.012011   | 0.012011   | 0.012011   |   0.0 |  0.20
Modify  | 0.4636     | 0.4636     | 0.4636     |   0.0 |  7.75
Other   |            | 0.02483    |            |       |  0.42

Nlocal:             96 ave          96 max          96 min
Histogram: 1 0 0 0 0 0 0 0 0 0
Nghost:            584 ave         584 max         584 min
Histogram: 1 0 0 0 0 0 0 0 0 0
Neighs:              0 ave           0 max           0 min
Histogram: 1 0 0 0 0 0 0 0 0 0
FullNghs:         3532 ave        3532 max        3532 min
Histogram: 1 0 0 0 0 0 0 0 0 0

Total # of neighbors = 3532
Ave neighs/atom = 36.791667
Ave special neighs/atom = 0
Neighbor list builds = 42
Dangerous builds = 0

fix npt1 all npt temp 10 10 0.1 iso 0 0 1
run 80000
Per MPI rank memory allocation (min/avg/max) = 8.55 | 8.55 | 8.55 Mbytes
   Step          Temp          E_pair         E_mol          TotEng         Press          Volume    
    960000   12.451855     -632.83532      0             -632.68242      832.16011      1198.8823    
    961000   10.873204     -632.81165      0             -632.67813     -506.16206      1197.0287    
    962000   9.1262345     -632.8287       0             -632.71663      2351.2252      1195.8186    
    963000   10.03325      -632.8265       0             -632.7033      -699.53444      1196.652     
    964000   9.907122      -632.79331      0             -632.67165     -1274.0708      1192.6749    
    965000   8.9907825     -632.80838      0             -632.69798      2211.9536      1193.6346    
    966000   9.6109098     -632.81202      0             -632.694        2280.6972      1197.8804    
    967000   9.2968047     -632.80361      0             -632.68945     -95.045897      1195.5286    
    968000   10.786796     -632.81993      0             -632.68747     -2425.2459      1195.5482    
    969000   10.890254     -632.82698      0             -632.69325      55.176672      1195.5581    
    970000   9.6938404     -632.81448      0             -632.69544     -246.659        1193.0477    
    971000   11.712614     -632.81749      0             -632.67366     -1572.714       1196.7996    
    972000   9.0257436     -632.82885      0             -632.71802      2470.0443      1197.1084    
    973000   10.293689     -632.81963      0             -632.69322      2896.8287      1195.2326    
    974000   8.2346144     -632.8016       0             -632.70048     -47.937067      1194.7002    
    975000   9.8807158     -632.82373      0             -632.7024       2637.5756      1193.2674    
    976000   10.212276     -632.80438      0             -632.67898      1438.0261      1191.9172    
    977000   9.0388932     -632.81169      0             -632.70069     -2014.3711      1195.3352    
    978000   10.138209     -632.82056      0             -632.69606     -440.45359      1196.2372    
    979000   9.2060865     -632.78338      0             -632.67033     -591.17934      1198.5688    
    980000   10.720711     -632.82808      0             -632.69643     -2517.2161      1194.0645    
    981000   11.804622     -632.80764      0             -632.66268     -610.6135       1195.6975    
    982000   10.654976     -632.79211      0             -632.66127     -827.44012      1194.47      
    983000   9.9691438     -632.81592      0             -632.6935       2363.3364      1193.9357    
    984000   9.2726991     -632.81385      0             -632.69998      4661.6707      1192.7824    
    985000   10.401275     -632.82271      0             -632.69499     -1767.0771      1195.2635    
    986000   10.690588     -632.78897      0             -632.6577      -1204.2537      1196.8919    
    987000   9.8803143     -632.81142      0             -632.69009      3135.1418      1195.9949    
    988000   9.3882009     -632.8238       0             -632.70851     -3435.6573      1196.7014    
    989000   9.5288539     -632.80605      0             -632.68904      2290.1669      1197.1285    
    990000   8.7200662     -632.81497      0             -632.70789      129.81709      1196.834     
    991000   8.8597945     -632.8032       0             -632.69441     -2219.3956      1197.7002    
    992000   9.387905      -632.81664      0             -632.70135     -4296.6822      1198.1887    
    993000   9.7128034     -632.82001      0             -632.70074      3216.1297      1196.2464    
    994000   9.0845467     -632.77582      0             -632.66426     -287.61217      1195.0543    
    995000   10.579818     -632.83124      0             -632.70132      2266.9632      1191.9882    
    996000   11.146384     -632.80981      0             -632.67294     -4709.8241      1197.6879    
    997000   10.396827     -632.82943      0             -632.70176      1814.8888      1194.3463    
    998000   10.294412     -632.77707      0             -632.65065     -3004.6145      1197.6185    
    999000   9.6734029     -632.82299      0             -632.7042       4549.2582      1192.14      
   1000000   10.522059     -632.82162      0             -632.69241      976.74377      1194.6515    
   1001000   9.1340424     -632.81299      0             -632.70083     -2793.6391      1197.317     
   1002000   8.6748105     -632.82985      0             -632.72333      246.38946      1195.0983    
   1003000   9.3575456     -632.80466      0             -632.68975     -282.4838       1198.5855    
   1004000   10.366317     -632.80387      0             -632.67657      4890.2764      1193.7323    
   1005000   9.2526187     -632.81583      0             -632.70221     -334.06287      1193.5117    
   1006000   9.4623555     -632.8317       0             -632.71551      4079.7881      1193.4499    
   1007000   10.766377     -632.79869      0             -632.66648     -1339.8351      1197.5792    
   1008000   10.121864     -632.83098      0             -632.70669     -2036.0064      1196.6469    
   1009000   10.617069     -632.80201      0             -632.67164      616.36646      1196.7983    
   1010000   9.1765638     -632.81349      0             -632.7008       52.67235       1194.7491    
   1011000   11.121855     -632.80628      0             -632.66971     -1062.8524      1195.9667    
   1012000   9.9493075     -632.79903      0             -632.67686     -2344.0208      1199.6809    
   1013000   9.0666252     -632.79719      0             -632.68585     -5918.5353      1197.3185    
   1014000   10.140379     -632.82429      0             -632.69977     -92.700612      1198.5375    
   1015000   11.127861     -632.80376      0             -632.66712      139.44041      1196.606     
   1016000   9.4431939     -632.80764      0             -632.69168     -3167.4654      1195.7737    
   1017000   10.818178     -632.79876      0             -632.66592      1478.7873      1195.3562    
   1018000   10.406133     -632.80288      0             -632.67509      669.39821      1195.3968    
   1019000   10.641672     -632.81421      0             -632.68353      919.07055      1193.6852    
   1020000   10.166699     -632.80704      0             -632.6822       1532.6737      1194.7463    
   1021000   10.519519     -632.80524      0             -632.67606     -6650.2517      1198.0599    
   1022000   10.191924     -632.83172      0             -632.70657      1142.7202      1193.8247    
   1023000   8.2700242     -632.80951      0             -632.70795     -215.46059      1196.9622    
   1024000   8.8926685     -632.80051      0             -632.69131     -484.53804      1194.2521    
   1025000   10.491516     -632.8149       0             -632.68606     -577.20453      1195.3119    
   1026000   10.260603     -632.8202       0             -632.69421      3869.9917      1194.599     
   1027000   10.018238     -632.82172      0             -632.6987       1420.5012      1196.3808    
   1028000   9.7940026     -632.80671      0             -632.68644     -4154.3237      1195.3438    
   1029000   11.800615     -632.81423      0             -632.66932      933.4368       1194.8234    
   1030000   10.759633     -632.81784      0             -632.68572      1474.0871      1194.9648    
   1031000   10.309234     -632.82701      0             -632.70042     -3017.6443      1197.4915    
   1032000   10.328634     -632.81691      0             -632.69008     -1616.4945      1193.9917    
   1033000   10.943527     -632.84709      0             -632.7127      -3866.7104      1197.6156    
   1034000   8.890737      -632.79621      0             -632.68703     -1077.4324      1194.6094    
   1035000   9.8070222     -632.79674      0             -632.67632     -813.79986      1195.1332    
   1036000   9.6959237     -632.78975      0             -632.67069      681.92517      1196.767     
   1037000   9.7210743     -632.82281      0             -632.70344      2290.9995      1194.9431    
   1038000   10.430472     -632.81084      0             -632.68276      1719.0669      1196.4087    
   1039000   9.2716041     -632.81607      0             -632.70222      5319.3787      1193.947     
   1040000   11.247981     -632.7947       0             -632.65658     -4138.9496      1196.0229    
Loop time of 6.05485 on 1 procs for 80000 steps with 96 atoms

Performance: 1141.564 ns/day, 0.021 hours/ns, 13212.549 timesteps/s, 1.268 Matom-step/s
98.9% CPU use with 1 MPI tasks x no OpenMP threads

MPI task timing breakdown:
Section |  min time  |  avg time  |  max time  |%varavg| %total
---------------------------------------------------------------
Pair    | 5.3593     | 5.3593     | 5.3593     |   0.0 | 88.51
Bond    | 0.0024469  | 0.0024469  | 0.0024469  |   0.0 |  0.04
Neigh   | 0          | 0          | 0          |   0.0 |  0.00
Comm    | 0.19537    | 0.19537    | 0.19537    |   0.0 |  3.23
Output  | 0.010948   | 0.010948   | 0.010948   |   0.0 |  0.18
Modify  | 0.46118    | 0.46118    | 0.46118    |   0.0 |  7.62
Other   |            | 0.02559    |            |       |  0.42

Nlocal:             96 ave          96 max          96 min
Histogram: 1 0 0 0 0 0 0 0 0 0
Nghost:            584 ave         584 max         584 min
Histogram: 1 0 0 0 0 0 0 0 0 0
Neighs:              0 ave           0 max           0 min
Histogram: 1 0 0 0 0 0 0 0 0 0
FullNghs:         3526 ave        3526 max        3526 min
Histogram: 1 0 0 0 0 0 0 0 0 0

Total # of neighbors = 3526
Ave neighs/atom = 36.729167
Ave special neighs/atom = 0
Neighbor list builds = 0
Dangerous builds = 0


write_data amorphousSiO.data
System init for write_data ...


Total wall time: 0:01:21
