96
 Atoms. Timestep: 0
2 0 7.95642 4.74695
2 4.63304 0 11.358
2 0 4.63304 4.74695
2 7.95642 0 11.358
2 0 4.63304 8.47514
2 7.95642 0 1.8641
2 0 7.95642 8.47514
2 4.63304 0 1.8641
2 10.7421 8.43088 6.61105
2 4.15858 10.7421 0
2 1.84736 4.15858 6.61105
2 8.43088 1.84736 0
2 1.84736 8.43088 6.61105
2 8.43088 10.7421 0
2 10.7421 4.15858 6.61105
2 4.15858 1.84736 0
2 10.5201 6.29473 5.04003
2 6.29473 10.5201 11.6511
2 2.06934 6.29473 5.04003
2 6.29473 2.06934 11.6511
2 2.06934 6.29473 8.18207
2 6.29473 2.06934 1.57102
2 10.5201 6.29473 8.18207
2 6.29473 10.5201 1.57102
2 10.1594 8.65935 9.20274
2 3.93011 10.1594 2.59169
2 2.43004 3.93011 9.20274
2 8.65935 2.43004 2.59169
2 2.43004 8.65935 9.20274
2 8.65935 10.1594 2.59169
2 10.1594 3.93011 9.20274
2 3.93011 2.43004 2.59169
2 2.43004 3.93011 4.01936
2 8.65935 2.43004 10.6304
2 10.1594 8.65935 4.01936
2 3.93011 10.1594 10.6304
2 10.1594 3.93011 4.01936
2 3.93011 2.43004 10.6304
2 2.43004 8.65935 4.01936
2 8.65935 10.1594 10.6304
2 0 10.703 0
2 1.88643 0 6.61105
2 0 1.88643 0
2 10.703 0 6.61105
2 0 0 1.872
2 0 0 8.48305
2 0 0 11.3501
2 0 0 4.73905
2 11.2706 2.31295 2.18973
2 10.2765 11.2706 8.80078
2 1.31887 10.2765 2.18973
2 2.31295 1.31887 8.80078
2 1.31887 2.31295 2.18973
2 2.31295 11.2706 8.80078
2 11.2706 10.2765 2.18973
2 10.2765 1.31887 8.80078
2 1.31887 10.2765 11.0324
2 2.31295 1.31887 4.42131
2 11.2706 2.31295 11.0324
2 10.2765 11.2706 4.42131
2 11.2706 10.2765 11.0324
2 10.2765 1.31887 4.42131
2 1.31887 2.31295 11.0324
2 2.31295 11.2706 4.42131
1 11.0086 7.83654 8.10972
1 4.75292 11.0086 1.49867
1 1.5809 4.75292 8.10972
1 7.83654 1.5809 1.49867
1 1.5809 7.83654 8.10972
1 7.83654 11.0086 1.49867
1 11.0086 4.75292 8.10972
1 4.75292 1.5809 1.49867
1 1.5809 4.75292 5.11238
1 7.83654 1.5809 11.7234
1 11.0086 7.83654 5.11238
1 4.75292 11.0086 11.7234
1 11.0086 4.75292 5.11238
1 4.75292 1.5809 11.7234
1 1.5809 7.83654 5.11238
1 7.83654 11.0086 11.7234
1 10.1088 10.1088 3.30552
1 2.48067 10.1088 9.91657
1 2.48067 2.48067 3.30552
1 10.1088 2.48067 9.91657
1 2.48067 10.1088 3.30552
1 10.1088 10.1088 9.91657
1 10.1088 2.48067 3.30552
1 2.48067 2.48067 9.91657
1 0 1.60471 1.57853
1 10.9848 0 8.18958
1 0 10.9848 1.57853
1 1.60471 0 8.18958
1 0 10.9848 11.6436
1 1.60471 0 5.03252
1 0 1.60471 11.6436
1 10.9848 0 5.03252
96
 Atoms. Timestep: 2000
2 0.0993476 7.82868 4.59897
2 3.99585 0.783479 12.1293
2 0.0825494 3.97003 5.02246
2 8.16418 0.544518 11.4743
2 12.614 5.62015 8.65523
2 7.46378 12.5825 2.6779
2 0.137359 8.2067 7.73024
2 4.87144 0.0597249 2.05766
2 10.3796 7.66892 6.1893
2 4.63597 11.0359 12.694
2 1.3425 4.77039 6.5177
2 8.0665 0.601715 0.555219
2 2.14732 8.23237 5.52553
2 7.76435 10.5914 12.4763
2 10.6612 4.5783 6.67609
2 4.3884 2.22338 0.530991
2 10.7871 6.02344 4.29823
2 6.24284 11.9594 10.5791
2 1.98956 6.12983 3.82676
2 6.68524 2.32049 12.3471
2 1.90347 6.71172 7.70933
2 6.41374 1.69187 1.77662
2 10.5083 6.62703 8.25419
2 6.21371 10.9142 0.929011
2 10.0804 9.1864 8.29199
2 3.4338 10.525 2.05441
2 2.35516 4.42508 8.93235
2 8.9695 1.43828 3.92077
2 1.85032 9.0561 8.67593
2 8.94476 10.7263 1.94759
2 10.9172 3.77848 9.68097
2 3.38735 2.43495 2.7805
2 2.32927 3.68287 3.99284
2 9.40615 2.36241 11.8883
2 9.90451 8.80757 4.18891
2 3.34022 10.8043 10.8757
2 10.732 3.34975 3.91351
2 3.90023 2.57966 10.9882
2 1.52963 9.65857 3.20033
2 8.19001 10.1645 10.3013
2 11.815 9.76884 12.5644
2 1.64918 0.0135786 6.97873
2 0.381369 1.38748 0.449173
2 11.2335 12.1315 7.29344
2 0.482653 11.9887 2.03887
2 0.460903 12.3545 8.5459
2 11.4765 11.5942 10.9409
2 0.617759 11.3796 4.91122
2 11.2685 1.12259 2.6166
2 10.2742 11.2485 8.98968
2 0.651674 10.047 1.42352
2 1.72506 1.6969 9.60284
2 0.742574 1.85784 2.97699
2 2.67827 11.6213 8.45979
2 11.0667 10.0301 1.91185
2 10.964 0.994267 9.70884
2 1.26021 10.3279 10.7419
2 2.71482 0.858782 4.87049
2 12.0409 3.0046 11.4757
2 10.961 11.1038 3.92992
2 11.1603 9.09414 9.91182
2 10.9695 0.643421 5.22816
2 1.40803 3.56911 11.2186
2 2.6916 11.6735 3.82727
1 11.1708 8.19807 7.52443
1 4.59179 11.0317 1.19696
1 1.44313 5.42803 7.96378
1 7.45819 1.43856 3.25418
1 1.59128 8.15899 7.1888
1 7.67348 11.5762 1.12935
1 10.6452 4.96697 8.25916
1 4.70937 1.77594 1.91122
1 1.6757 4.54509 5.1373
1 8.16154 1.66177 12.7112
1 11.0148 7.61142 4.81561
1 4.44868 11.9246 11.195
1 11.4009 4.59781 4.91899
1 4.93756 2.09413 12.2712
1 1.55329 7.73065 3.99785
1 7.75449 11.6334 11.324
1 9.88886 10.1717 3.28526
1 2.58789 10.1599 9.36364
1 2.2516 1.89792 3.62868
1 10.6956 2.4613 10.5949
1 1.72907 11.085 2.47382
1 9.52852 9.95506 9.42797
1 10.4694 1.71738 4.07651
1 2.38754 3.23975 10.1316
1 0.0264198 0.996526 1.88549
1 11.6328 12.1755 9.07875
1 11.8208 9.15895 0.749958
1 1.82913 0.524081 8.50598
1 12.4081 10.3157 11.1051
1 2.03025 12.109 5.3506
1 0.386301 2.64645 12.6289
1 11.5315 11.8876 5.39311
96
 Atoms. Timestep: 4000
2 -0.00837319 8.12599 4.57493
2 4.12723 12.5641 11.737
2 0.406315 4.85726 4.95801
2 8.06564 12.0517 11.9141
2 12.6396 4.46348 7.6027
2 7.33128 -0.312059 2.91306
2 2.00399 8.58699 6.19281
2 4.37403 -0.135282 1.18535
2 11.8276 8.04446 6.85268
2 4.01949 10.8635 12.9545
2 1.90745 4.26999 6.4011
2 8.35615 -0.0471979 0.0593513
2 -0.018911 8.0612 8.50237
2 8.03605 10.6557 -0.0910069
2 10.4351 3.73635 6.37862
2 5.04741 1.53269 -0.44657
2 11.4597 6.54016 5.09982
2 6.51909 9.98276 12.1593
2 2.35843 6.52582 4.38288
2 6.23675 0.503467 11.7739
2 1.77299 6.03858 8.1769
2 6.01854 1.3623 2.11266
2 10.7792 5.5603 8.13144
2 6.38445 11.5608 0.966542
2 10.7967 7.71355 9.84593
2 3.28434 11.1328 1.37938
2 1.27741 3.44971 9.29774
2 8.70801 1.7912 3.40878
2 2.13439 9.02578 9.03549
2 9.28004 11.425 2.38465
2 9.82874 2.89572 8.82533
2 3.57808 2.44785 2.05997
2 2.01012 4.13177 3.46412
2 8.45633 1.97411 11.0169
2 10.6492 9.53188 4.27464
2 3.32449 10.5871 10.775
2 10.9196 3.50669 4.17367
2 3.5981 2.29003 11.0943
2 2.17837 9.40133 3.06527
2 9.43953 9.76107 11.3079
2 12.9194 10.7368 13.2704
2 2.09017 0.68517 6.91979
2 12.0496 2.66798 13.3695
2 10.8634 12.8047 7.56209
2 0.129445 0.977443 -0.257399
2 0.202421 -0.00574456 9.27768
2 12.9889 0.0434008 11.547
2 0.0105174 12.3249 5.55565
2 10.8991 2.20637 2.00884
2 10.6065 11.0082 9.0165
2 0.944706 11.3959 1.50243
2 2.60407 1.55184 9.17883
2 0.855853 1.85693 1.9273
2 1.80597 11.7235 8.76451
2 11.4434 10.6207 2.23878
2 10.8046 0.697962 9.68539
2 0.771669 10.606 10.8266
2 1.87395 1.42108 4.01408
2 11.0701 2.31736 11.2471
2 10.2201 12.1612 4.39529
2 11.1837 10.7462 10.9842
2 11.0598 0.92963 4.23389
2 0.658894 2.26916 11.0546
2 2.17668 12.0259 4.36727
1 11.7858 7.0367 8.16185
1 4.59294 11.3598 0.600566
1 1.15804 4.47082 7.93076
1 7.15815 1.55832 3.29867
1 1.91625 7.8066 7.77633
1 7.92368 11.7404 1.16753
1 10.8643 3.65317 7.91118
1 4.63269 1.5682 1.28304
1 1.97431 4.94727 4.92644
1 8.14932 0.714622 12.0162
1 11.6075 8.13788 5.02163
1 4.89625 10.7805 11.6646
1 11.5945 4.74852 5.30915
1 4.51135 0.948724 11.9129
1 1.70918 8.13351 4.19888
1 8.22628 10.3546 11.963
1 10.4294 10.8356 3.37426
1 2.0659 10.4193 9.66305
1 1.91728 2.70304 2.83762
1 9.79129 2.04278 10.0423
1 2.03334 10.8874 2.91957
1 10.5154 9.50969 10.097
1 10.1351 2.16981 3.49093
1 1.94762 2.65264 10.4549
1 12.5749 1.99426 1.07209
1 11.5225 12.4637 9.01062
1 12.6057 11.2323 0.989939
1 1.90869 0.310252 8.42428
1 12.5441 11.2782 11.7615
1 1.49814 0.0158683 5.13618
1 12.3704 1.70684 11.8906
1 11.0306 -0.0805269 5.53957
96
 Atoms. Timestep: 6000
2 0.082969 8.2895 4.98561
2 4.68635 12.4797 11.5593
2 12.6478 5.25808 6.13595
2 8.2758 12.6891 10.9513
2 12.3578 4.06298 8.07465
2 8.12955 0.777803 2.49899
2 2.2892 7.36481 6.53403
2 3.16265 0.167729 2.36971
2 11.7836 8.1268 6.79133
2 5.09677 10.9657 -0.0403438
2 1.28815 3.91489 6.60292
2 8.20221 0.164628 -0.154147
2 0.25 7.73989 8.22108
2 5.77535 0.443693 13.1
2 10.3503 5.24217 7.17796
2 3.60872 1.25067 13.3453
2 10.5369 6.82993 5.01094
2 6.582 10.768 11.5497
2 1.7407 5.88935 4.43567
2 6.94309 1.73877 11.7403
2 1.8947 5.62866 8.71563
2 5.91784 1.21453 1.20787
2 11.0733 6.40447 8.74917
2 6.81243 11.6318 2.01572
2 11.3875 8.93481 9.80209
2 4.02958 10.3206 2.68266
2 1.81737 2.8953 9.2553
2 8.70515 2.92675 2.78846
2 2.29762 8.67602 9.20449
2 9.69585 11.487 2.15986
2 10.6324 3.63996 9.64544
2 3.20115 2.47801 1.57348
2 1.03744 3.3912 3.80911
2 9.2886 1.97022 11.0971
2 10.8525 9.54717 4.19099
2 4.12186 10.3363 11.0841
2 10.5874 4.15966 4.5913
2 4.03721 1.91675 10.6745
2 2.631 8.90274 4.08695
2 8.87732 10.2461 10.4023
2 0.912674 11.1758 -0.332899
2 1.22482 -0.152459 6.38434
2 12.5573 0.0817599 1.49222
2 10.2635 12.4684 6.57252
2 11.5901 1.66169 12.9118
2 12.3539 12.082 8.28059
2 -0.0273185 12.3998 11.9451
2 12.5448 0.61196 5.24447
2 10.9871 1.74104 2.49889
2 10.4633 10.7878 8.95966
2 1.4177 10.7101 2.07083
2 2.29895 0.294142 8.62411
2 -0.287055 2.76998 1.7844
2 1.46242 10.5564 8.62999
2 12.4751 11.397 2.72987
2 10.5898 0.618126 8.4804
2 1.71715 10.1446 11.3823
2 1.66732 1.12516 3.35842
2 11.3999 1.07599 10.5405
2 10.3879 12.0419 4.22789
2 11.7693 10.4087 11.4312
2 10.1169 1.64002 4.35483
2 1.29281 1.72177 10.9123
2 2.01002 11.6285 4.05305
1 11.6393 7.82756 8.53807
1 5.36788 11.0896 1.45423
1 0.971182 3.88614 7.98024
1 7.42924 2.08736 1.82005
1 1.87362 7.31241 8.20149
1 8.33694 12.5398 1.70469
1 10.921 4.84744 8.54717
1 4.12409 1.11898 1.35048
1 1.06975 4.67731 5.15775
1 8.34664 0.859655 12.004
1 11.2733 8.28364 5.31815
1 5.18918 11.0865 11.9972
1 10.9297 5.23689 5.58663
1 5.12228 1.40255 11.8491
1 1.72144 7.91752 5.15
1 7.69887 11.3854 10.4221
1 10.83 11.2119 3.18801
1 2.72115 10.1721 10.0134
1 1.48756 2.41426 2.17287
1 10.2684 1.85189 9.49631
1 2.5503 10.3795 3.23615
1 10.5187 10.0171 10.6015
1 10.2158 2.93512 3.33891
1 2.44455 1.48458 9.70188
1 11.6984 1.62392 0.929536
1 10.6879 11.6981 7.9353
1 0.3604 11.8041 1.13111
1 1.1747 12.1265 7.90218
1 0.339808 10.6696 11.9488
1 1.47981 0.0993164 4.7462
1 12.6762 1.15667 11.6617
1 11.1029 0.219679 5.29694
96
 Atoms. Timestep: 8000
2 12.4183 7.99185 4.11961
2 5.13873 11.4764 11.4515
2 12.4357 4.29345 4.65287
2 7.94055 0.777507 10.6367
2 12.5435 4.31056 8.35026
2 6.72919 11.8618 3.23735
2 0.860703 8.28984 5.77752
2 6.40367 9.56008 1.29896
2 11.1442 8.2404 6.4934
2 5.53716 9.27938 12.0431
2 1.80892 4.75079 6.44532
2 3.60926 2.93792 10.8873
2 12.8278 8.32746 8.53894
2 4.08542 11.1774 -0.209469
2 10.4074 4.35921 7.08004
2 4.18006 1.27321 13.0846
2 10.4213 6.04248 5.65251
2 7.21407 10.9269 11.009
2 1.35894 6.43636 4.1385
2 5.96598 2.60079 9.78381
2 1.41107 6.38377 8.62865
2 6.17553 1.29533 1.77934
2 11.0462 6.73776 9.07207
2 4.0441 8.55839 -0.0967215
2 10.4413 9.55445 9.17367
2 4.18814 10.2064 2.46454
2 1.7761 3.18891 8.93055
2 8.47204 1.25143 3.02818
2 2.63498 8.79217 8.18804
2 8.9933 10.0102 2.35528
2 10.5835 4.24328 9.69266
2 4.13626 2.68877 2.19015
2 1.44313 3.99672 3.50687
2 8.96421 2.42335 9.3024
2 9.90974 9.02784 4.49846
2 4.23949 9.45249 10.1716
2 9.92935 3.36678 4.57246
2 2.59575 0.491837 11.4309
2 1.69654 9.36062 3.77855
2 9.85215 10.7853 11.0695
2 0.128717 10.7732 0.250003
2 1.69665 0.286746 6.71499
2 0.0633156 -0.111869 2.02586
2 11.5413 12.5476 6.38704
2 13.0036 1.81581 -0.312493
2 0.617501 12.741 8.72169
2 12.6686 12.3231 12.0521
2 0.212715 0.205183 4.14084
2 11.5346 2.04433 2.33412
2 10.8714 12.0351 8.95873
2 1.30986 10.5116 1.79924
2 2.93523 1.35733 8.94285
2 0.816771 2.20882 2.77942
2 2.69245 11.3195 9.01658
2 11.5576 10.2389 2.37371
2 11.0361 1.53713 8.58918
2 2.57323 10.3101 11.1935
2 2.63982 1.37435 4.33406
2 11.2515 1.30308 10.9187
2 10.7041 12.0931 3.89186
2 12.8039 10.5499 10.6586
2 11.1438 1.51325 4.52608
2 0.610993 1.73316 11.0083
2 2.19632 11.3414 4.35122
1 10.9675 8.37321 8.1141
1 4.93965 10.0727 0.644514
1 1.12505 4.64301 8.1778
1 7.04451 0.597593 2.91242
1 1.2816 7.86409 7.6636
1 7.33209 10.4863 2.5363
1 11.1237 5.08615 8.57023
1 4.76262 1.59927 1.25008
1 0.996438 4.79678 4.81933
1 7.43816 2.28598 9.82078
1 10.9037 7.51922 4.9599
1 5.7565 10.146 10.5572
1 10.9032 4.48874 5.4182
1 3.7437 12.3871 12.2511
1 1.11562 8.11093 4.21136
1 8.63073 11.8581 10.9353
1 10.2182 10.2313 3.36135
1 2.99534 9.6978 9.4572
1 2.29748 2.71971 3.0112
1 10.4604 2.45989 9.9518
1 2.62999 10.3734 3.0105
1 11.2048 10.7771 10.1152
1 9.88025 2.23512 3.35097
1 2.24325 2.13478 10.3961
1 -0.143944 1.49251 1.43905
1 11.935 0.0540554 8.0332
1 -0.212239 11.1127 1.72357
1 2.2334 -0.191444 8.46553
1 0.669701 10.7725 12.1953
1 1.92711 0.0326979 5.01228
1 12.576 0.843535 11.8932
1 11.5655 0.0273042 4.79873
96
 Atoms. Timestep: 10000
2 0.120823 9.29997 4.09486
2 5.97212 1.69157 11.4469
2 0.155278 5.26146 4.87774
2 6.46287 7.8442 10.7265
2 1.14538 3.31549 8.11748
2 8.10934 12.6798 0.98864
2 2.42551 7.81381 6.48514
2 7.00641 10.3384 1.53745
2 10.9371 7.48073 6.58902
2 5.02957 8.7917 12.9817
2 2.65081 4.62443 6.20401
2 5.77027 4.27782 11.3953
2 0.342618 7.83978 8.40411
2 5.24452 11.7112 12.9943
2 11.471 3.64851 6.25364
2 4.06933 1.35937 13.1661
2 10.4537 6.30606 4.75709
2 5.10487 6.81398 0.0198611
2 1.2888 6.8827 4.69814
2 7.6962 2.19037 12.4227
2 2.55154 6.43164 8.66724
2 5.93332 1.57601 0.650285
2 11.1418 5.6007 7.87435
2 11.687 2.06457 3.61577
2 10.8175 8.59122 9.13648
2 3.99596 10.842 1.97187
2 3.09417 2.99809 8.59675
2 8.2304 2.60607 2.07714
2 2.62106 8.63067 9.1837
2 9.78196 9.84737 2.65835
2 10.8514 3.34623 9.31254
2 3.71796 2.84068 2.35101
2 2.05052 4.22884 3.94543
2 8.77652 3.0383 10.9745
2 9.97809 9.2267 4.58229
2 3.78878 6.86898 11.3942
2 9.74593 3.86278 4.16369
2 4.28519 0.60542 10.5239
2 2.28578 9.61798 4.2792
2 9.00938 9.62339 10.6572
2 12.2171 11.3225 0.0736876
2 1.07833 -0.00276049 6.32153
2 12.6958 0.563653 1.73387
2 10.7512 1.00639 6.13038
2 0.224552 2.12338 -0.124173
2 12.2031 12.2973 7.99213
2 12.4889 0.216411 12.0012
2 0.132465 -0.0336936 4.14164
2 10.1844 1.82895 2.09149
2 10.7142 11.2484 8.92421
2 1.71765 11.0515 2.02523
2 2.15232 0.385967 9.10442
2 1.07462 2.1973 2.19129
2 1.56964 10.5784 8.98426
2 12.1156 10.3947 2.35879
2 9.87575 1.6858 8.31136
2 1.79945 10.8744 11.3887
2 2.50253 1.52422 4.27757
2 11.5317 1.64211 10.4357
2 10.8882 11.7016 4.37367
2 11.5998 10.1412 10.9098
2 9.78777 1.713 4.44484
2 1.81105 1.72481 10.9719
2 2.32285 11.5578 4.3169
1 11.3995 7.34157 8.14867
1 5.27743 10.2344 0.817755
1 2.32395 4.59902 7.90491
1 7.6639 1.46988 0.618557
1 2.11518 7.85463 8.0495
1 8.58702 10.9245 1.37409
1 11.7056 3.98392 8.11335
1 4.51093 1.94775 1.37951
1 1.6486 5.30865 4.83531
1 6.96168 3.17706 11.1497
1 9.69847 7.9234 5.67331
1 5.1557 7.66077 11.6729
1 11.1778 4.88211 4.98191
1 4.92156 0.68716 11.9883
1 1.65245 8.28125 5.0146
1 7.52408 8.85356 10.5118
1 11.1088 10.1234 3.98139
1 2.6853 9.86639 10.1603
1 2.20141 2.69593 3.34928
1 10.0155 2.10104 9.95716
1 2.95582 10.6582 3.04869
1 10.341 10.1067 9.71194
1 9.18527 2.54201 3.20797
1 2.98733 1.80181 9.59293
1 12.2653 2.25654 1.64348
1 10.8571 0.458226 7.59484
1 0.19802 11.7698 1.47399
1 1.08558 12.2591 8.13499
1 12.4966 11.0957 11.7602
1 1.50123 0.308098 4.74553
1 0.0463151 1.77895 11.5604
1 11.241 0.626374 4.62578
96
 Atoms. Timestep: 12000
2 11.6463 8.2057 3.1452
2 7.16942 0.804543 11.1811
2 -0.0873857 4.69452 5.61914
2 6.04569 10.1689 11.9273
2 4.11975 6.31373 7.66663
2 9.17483 12.6452 1.37804
2 0.368927 7.92607 5.83858
2 7.82058 10.762 0.199382
2 9.49607 8.27534 5.67586
2 5.55842 9.31898 0.372578
2 2.72295 4.43312 5.71367
2 9.31969 11.9913 10.8215
2 11.5651 8.03521 7.819
2 5.22233 12.108 9.97161
2 11.2205 4.26091 7.1041
2 6.1602 0.697346 4.01256
2 10.3801 6.34097 4.39305
2 7.28839 7.90182 1.28992
2 0.483529 5.66905 3.61662
2 8.8617 1.04056 13.2122
2 1.80753 7.12969 7.57812
2 6.9468 0.920546 1.67962
2 9.89465 6.82162 8.04662
2 11.7896 12.0972 2.856
2 9.18829 9.54857 8.40754
2 4.8761 11.3655 2.04329
2 2.84882 4.82775 8.83737
2 9.16317 2.80206 2.38874
2 0.56675 9.06645 8.8859
2 9.82804 10.4879 1.78169
2 10.0978 4.41104 10.0534
2 4.03193 0.746673 2.33559
2 2.80192 3.37109 3.83635
2 9.04728 1.92555 11.0926
2 7.68329 6.78064 3.52337
2 6.9244 7.52641 12.6786
2 10.0335 3.57267 4.72912
2 4.61753 2.0883 9.97593
2 1.54572 8.36251 3.72625
2 6.93114 11.3709 8.86349
2 11.9885 12.0325 0.0551535
2 2.34766 11.9763 6.85124
2 0.126635 0.522409 1.23798
2 11.136 -0.0825689 6.18284
2 0.811862 2.49605 0.229499
2 0.0693971 0.370254 7.9001
2 0.0656867 0.635056 11.9706
2 12.859 12.2868 4.74497
2 11.7855 2.35108 2.95834
2 9.62449 12.4239 8.30417
2 1.33359 10.0313 1.28236
2 2.77257 1.78218 8.93655
2 1.2002 1.98176 2.5364
2 1.76469 11.3149 9.43772
2 12.1294 10.1188 2.68542
2 10.6777 1.65469 9.30964
2 -0.036916 10.2583 11.3912
2 1.99284 0.394039 3.97451
2 11.899 2.79637 11.5918
2 10.4266 10.8286 4.10442
2 10.1439 10.7892 12.654
2 9.90434 0.800663 3.8741
2 2.04062 2.61437 11.1773
2 2.24165 10.9714 4.02459
1 9.99318 8.28086 7.23147
1 4.29013 9.93384 1.50697
1 2.84294 5.40988 7.34088
1 8.58857 1.5107 1.27583
1 0.482727 7.95703 7.68786
1 9.43697 11.4667 0.420143
1 10.6141 5.12165 8.68047
1 5.68748 0.187623 2.5794
1 1.49034 4.64068 4.35704
1 8.61663 0.310227 11.5581
1 8.92752 7.64733 4.20629
1 7.10898 9.02407 13.3435
1 10.9331 4.99496 5.43637
1 5.65156 0.966013 10.5365
1 0.130492 7.25006 4.02123
1 5.97585 10.4808 10.2085
1 10.5967 9.69529 2.94542
1 1.0216 10.0459 10.2695
1 2.7973 1.63662 3.30265
1 10.3409 2.61042 10.6586
1 2.33418 9.58957 2.60283
1 8.84833 11.3711 9.23267
1 10.1662 2.44194 3.59193
1 2.93287 3.32618 9.70615
1 -0.0913377 2.16653 1.67488
1 11.1861 0.320059 8.1854
1 -0.143209 11.4776 1.53666
1 1.88473 -0.0122673 8.59952
1 11.7785 11.6529 12.0474
1 1.62984 12.089 5.3527
1 0.766443 2.47437 12.0729
1 10.9195 12.3435 4.34338
96
 Atoms. Timestep: 14000
2 0.187091 8.71532 4.18926
2 6.79552 1.54808 9.76644
2 10.8646 5.11016 4.66026
2 6.25549 10.4456 12.4159
2 1.25994 6.6318 7.92888
2 7.45965 0.996921 12.2655
2 2.06103 7.94742 6.34956
2 5.74775 9.21192 1.98584
2 0.588538 8.55285 9.21405
2 6.16302 10.5671 4.43093
2 0.753429 5.2029 4.8697
2 9.58964 12.3693 10.5949
2 2.4393 9.94656 7.20647
2 5.64916 9.8543 9.65241
2 9.63467 5.41673 6.5884
2 7.47057 2.88963 3.12205
2 7.98462 5.72487 4.43145
2 5.77955 11.7697 0.824538
2 2.07211 6.90438 4.31205
2 7.52505 11.9503 10.4468
2 12.3265 4.79231 7.1367
2 5.75026 1.85737 1.15654
2 11.529 6.41729 8.94713
2 9.79638 1.08838 4.67878
2 10.4459 9.31001 10.3472
2 5.99828 1.03147 3.80597
2 2.22299 3.67962 6.96427
2 10.3137 2.17978 2.74227
2 2.92554 8.99711 9.08862
2 5.29332 4.96658 3.64283
2 10.4113 3.92485 8.64671
2 3.82597 2.78222 2.82138
2 0.764745 4.23271 2.4104
2 9.36923 1.44752 9.27785
2 6.34959 7.96861 4.32472
2 4.07223 10.5155 2.31711
2 9.01077 3.47652 4.67313
2 4.70702 1.97215 7.76079
2 2.81131 9.60543 3.87266
2 8.24156 10.1051 10.1521
2 1.69203 11.122 13.0134
2 1.07605 11.4467 7.74135
2 12.4988 11.9148 0.427299
2 10.8583 11.9113 6.38764
2 2.17291 0.265733 10.0235
2 12.4902 3.14886 5.38197
2 3.73583 11.7305 0.023599
2 0.141648 12.4904 5.7942
2 11.1105 1.32955 1.53162
2 11.2183 11.0563 9.117
2 1.96814 11.3454 1.99888
2 2.90008 0.5844 6.50212
2 1.22542 2.30875 1.60059
2 3.15699 11.3765 8.42992
2 12.2533 10.4877 2.75229
2 11.9013 1.12451 8.11496
2 3.29654 11.1745 10.7066
2 1.22918 2.18838 3.99729
2 12.2787 2.07564 9.90218
2 10.2699 10.3558 5.05115
2 1.49886 0.707871 12.7253
2 7.74481 0.380016 4.75309
2 1.76065 1.47659 7.95301
2 2.394 11.6274 5.25338
1 11.6926 8.01288 9.6571
1 6.06634 12.1616 4.28424
1 1.13688 5.23326 6.86513
1 6.41011 0.623715 0.0944758
1 1.97621 8.26231 7.96874
1 6.06051 9.26571 3.55413
1 10.7533 5.29526 7.73079
1 5.55651 2.4482 2.65547
1 11.8876 4.9625 3.43647
1 8.1231 1.0564 10.4423
1 6.64096 6.07878 3.59193
1 5.00359 10.3188 0.552344
1 9.43225 4.85008 5.10775
1 5.16146 1.55739 9.45093
1 1.64171 8.58293 4.85977
1 6.7084 10.5067 10.7829
1 11.636 9.76295 4.10574
1 3.83204 10.2278 9.5186
1 2.18834 3.22557 2.86752
1 10.8357 2.37972 8.82325
1 2.72526 11.2717 3.52451
1 9.78536 10.725 10.093
1 9.11329 2.21583 3.66422
1 3.21051 2.09669 7.08281
1 0.159926 1.09718 0.853511
1 12.0007 11.9629 7.63499
1 0.635634 10.5308 1.14999
1 2.62998 11.6059 6.90912
1 2.47396 12.184 12.0671
1 12.3739 1.69258 5.16361
1 1.15914 1.55844 9.45026
1 9.23102 12.0769 5.46083
96
 Atoms. Timestep: 16000
2 0.910484 9.22232 3.68536
2 5.48157 0.761805 10.4938
2 11.6784 7.06568 3.55209
2 5.46429 9.85992 11.2246
2 1.17741 6.81292 7.39358
2 6.27061 12.5037 12.9854
2 0.104205 8.15289 5.44459
2 7.64672 8.3174 1.43386
2 11.0439 7.63615 7.63901
2 6.18193 9.92099 2.49929
2 8.54176 8.17993 7.02856
2 9.17466 0.209653 7.76331
2 12.3166 10.0716 6.82196
2 4.07526 10.1158 8.66875
2 9.53728 7.14575 10.95
2 8.51162 1.76589 3.91291
2 8.93097 7.16634 4.86659
2 3.68261 10.2418 12.4797
2 2.03935 6.19784 4.62556
2 6.8873 11.3234 10.6408
2 0.224737 4.45881 8.97668
2 6.396 0.604088 1.82473
2 9.73742 7.06052 9.44995
2 10.5047 0.356785 4.5221
2 9.47651 10.0429 8.0742
2 6.70838 0.132633 3.9329
2 1.88074 4.54372 6.6053
2 10.3013 3.41015 4.36237
2 1.27043 9.03437 8.16755
2 7.39135 9.33886 4.16131
2 9.85284 3.78202 10.1095
2 5.81892 2.58718 3.05867
2 3.44637 3.7176 4.57112
2 8.56301 1.07376 11.7998
2 7.03215 7.26654 3.84769
2 4.0767 7.64375 0.0297178
2 10.525 4.98671 4.03174
2 3.26067 1.87358 10.0034
2 1.86995 7.01368 2.45151
2 7.25324 10.5136 8.47072
2 0.973424 10.2611 12.5777
2 12.1991 0.652718 7.4073
2 2.14643 4.6956 1.21396
2 9.78281 1.81476 6.72384
2 0.345138 0.681744 11.5996
2 2.24005 2.39141 7.13286
2 2.9153 12.5443 11.0198
2 10.677 3.20201 7.93453
2 0.834796 2.9534 13.0219
2 8.683 11.3539 5.84231
2 3.33448 9.37882 1.24374
2 1.43418 0.0897695 5.96207
2 3.01296 2.62213 1.66045
2 1.48981 11.2403 8.02536
2 1.20037 11.0603 2.03301
2 10.0736 1.18996 9.69993
2 1.73744 11.1072 10.0075
2 3.1383 1.3678 4.29049
2 11.119 2.65676 11.4917
2 11.0746 10.9319 3.70139
2 3.38601 2.29284 12.2641
2 8.12283 11.2659 3.53112
2 1.02857 2.62246 10.4295
2 4.73223 7.20565 2.5738
1 9.80141 8.19893 8.17466
1 6.33517 10.8758 3.95302
1 1.34617 5.25199 8.15828
1 6.75219 11.7124 1.19042
1 0.0857491 8.14101 7.34754
1 6.41935 7.90524 2.30547
1 11.2075 4.23169 9.21543
1 6.95146 1.62071 3.15133
1 2.23431 4.51321 5.10576
1 6.93347 0.494874 11.4752
1 7.72365 8.02512 5.13534
1 4.51884 8.89554 12.1947
1 10.2791 6.46449 4.48551
1 3.92931 1.22327 11.0898
1 0.721339 7.27151 3.93944
1 5.61451 10.5452 9.3517
1 0.290536 10.8351 3.28859
1 2.44975 10.1867 8.88409
1 4.11747 2.61388 3.20086
1 9.85363 2.14741 11.0841
1 3.31835 7.41567 1.61769
1 8.63195 11.3631 7.64808
1 9.70169 1.89927 5.12085
1 2.11475 2.51453 9.08084
1 2.37158 3.01494 0.261316
1 10.8157 1.22584 8.09186
1 2.31723 10.6342 0.466532
1 0.455864 11.8803 6.96435
1 1.13922 11.8599 11.436
1 2.10568 1.4741 5.74415
1 -0.0245353 2.27542 11.7475
1 9.71036 11.6027 4.46697
96
 Atoms. Timestep: 18000
2 1.06815 8.79923 3.38686
2 5.10216 0.438395 12.4837
2 11.0251 6.92108 4.0899
2 5.56276 8.40573 9.03832
2 2.3964 4.02252 10.3808
2 7.71786 11.4479 12.9232
2 0.925348 9.37614 6.03374
2 5.11194 8.5332 0.410497
2 11.718 10.5257 8.14531
2 6.81343 9.64323 0.650303
2 11.0123 8.23062 8.24593
2 8.26757 5.98064 0.869139
2 12.307 11.7547 5.83674
2 4.63672 9.08805 7.23531
2 9.39454 9.35904 11.38
2 6.65591 4.21675 3.07928
2 9.77558 6.16576 6.87292
2 3.48456 7.93204 12.001
2 1.19033 6.98356 6.41922
2 5.59516 10.4751 10.9131
2 11.3061 3.7766 9.80644
2 5.36878 5.90191 2.75648
2 10.1657 9.13983 9.87369
2 8.06684 2.41745 4.14683
2 9.00444 10.7127 7.9734
2 8.79284 1.36356 6.06382
2 1.39115 4.89184 8.25493
2 7.51373 5.37573 5.20186
2 2.44249 10.4393 7.51841
2 6.27533 9.98378 3.62182
2 9.10034 1.6193 9.75777
2 5.37726 4.49617 5.10468
2 2.76704 5.43898 5.28387
2 6.91854 0.420401 10.6108
2 9.14979 6.87473 9.68786
2 4.82243 11.278 8.56366
2 8.43801 6.41659 4.2196
2 4.39019 0.292795 10.2808
2 2.3722 7.18923 3.73537
2 6.7862 10.186 7.54372
2 1.39283 8.989 11.5847
2 10.5993 2.01563 5.21998
2 3.83281 2.23283 12.6841
2 7.67472 3.2933 6.01637
2 0.817093 11.5992 10.0427
2 4.21878 1.23686 7.12432
2 2.40887 11.1892 11.7661
2 9.8346 3.2241 7.99882
2 1.84874 1.16229 11.2509
2 7.99405 0.718002 7.92659
2 2.90629 7.03263 1.36744
2 1.76712 1.81242 6.29516
2 4.32522 4.00371 2.42889
2 2.49314 7.30408 8.149
2 1.78803 9.55458 1.1454
2 6.55201 2.09878 8.23982
2 2.77475 9.94873 9.4949
2 3.69162 2.42992 4.85617
2 11.563 1.51468 9.02581
2 11.1488 10.4066 2.28665
2 4.91111 5.09295 0.735419
2 8.4173 10.6835 3.23029
2 2.07301 0.850567 8.66376
2 5.05812 8.22501 3.04772
1 10.3253 9.76941 8.43439
1 7.39152 10.4496 4.75682
1 0.849171 4.08992 9.64051
1 8.48933 9.82202 12.9272
1 0.744466 10.7598 6.98791
1 6.02994 8.98454 2.02183
1 10.2959 2.54731 9.3331
1 6.72938 5.63821 1.61405
1 2.36792 5.69386 6.90951
1 6.4087 11.7134 11.8951
1 10.4584 6.71366 8.29433
1 4.84653 8.81693 11.638
1 9.89988 6.1732 5.01534
1 3.37378 0.48857 11.7896
1 1.0856 8.08881 4.96872
1 5.83793 10.2375 8.88253
1 0.582634 9.66564 2.21245
1 3.39924 8.85754 8.22184
1 3.83671 4.10734 4.44392
1 7.32154 1.37239 9.38282
1 4.00229 7.09567 2.86942
1 8.47564 11.5898 6.70681
1 6.90572 3.71433 4.65588
1 3.69468 0.313046 8.63282
1 3.50103 3.85627 0.938597
1 9.35642 2.65909 6.21841
1 2.07789 8.1908 12.9632
1 12.2303 1.27175 5.73336
1 1.77427 10.3638 10.6947
1 3.33826 1.61687 6.0202
1 1.02904 1.15064 9.83523
1 9.69752 10.6647 2.10845
96
 Atoms. Timestep: 20000
2 1.74387 8.17872 1.41313
2 5.11739 1.19268 13.0805
2 9.47603 5.26284 7.7502
2 5.55638 10.058 9.22625
2 10.3838 7.00328 7.14304
2 7.05464 10.461 12.817
2 2.44935 9.87862 4.39868
2 6.62157 8.20181 11.0943
2 2.67112 8.23987 7.15202
2 8.14882 7.87578 12.9341
2 8.48059 8.16509 5.0343
2 4.65941 3.21689 0.876069
2 11.7287 2.44127 4.93452
2 2.09073 0.938174 8.61028
2 8.38941 9.91815 10.8145
2 6.13841 3.0917 3.50545
2 7.74473 6.0776 7.04672
2 3.9202 8.64115 11.0064
2 1.69053 7.99135 3.97267
2 5.29308 10.9955 11.3242
2 11.6312 4.60565 9.00761
2 5.6522 5.35095 2.42395
2 7.8722 10.1739 9.22968
2 7.02666 0.740588 5.19083
2 9.31845 10.7454 6.66415
2 8.12572 0.580467 7.66886
2 10.9247 3.93196 6.96305
2 7.53519 3.78245 5.71889
2 0.862644 10.5249 6.75088
2 8.85628 5.97069 12.2825
2 8.80541 3.58233 12.0241
2 5.39048 3.78394 5.97315
2 2.84434 5.16698 7.63604
2 6.95556 1.02524 12.0308
2 9.05387 8.47686 7.58138
2 4.05122 0.46906 7.9564
2 8.35813 2.63928 8.15067
2 3.84356 1.62041 11.3593
2 4.02988 8.22893 2.32194
2 6.67478 10.7045 7.25022
2 1.67191 10.2563 11.0616
2 10.1153 1.94501 6.67037
2 2.07637 2.9035 1.73143
2 8.59989 1.68746 10.1103
2 2.999 2.17594 10.1648
2 5.09823 2.78439 8.30875
2 2.4669 0.745162 12.6168
2 10.3768 2.43203 9.26092
2 3.14168 3.51579 12.0233
2 9.98654 11.6814 8.638
2 3.52574 6.25842 0.626291
2 0.393646 1.10579 6.80174
2 2.95296 4.15512 4.92856
2 3.13873 10.5482 7.28621
2 1.70619 7.29201 11.3831
2 7.04818 3.68383 10.2792
2 0.821666 11.8739 10.0294
2 2.92812 2.93793 7.16272
2 0.614709 3.85663 10.6091
2 0.972024 6.27502 1.87081
2 4.12318 3.84599 3.31843
2 10.8351 4.23183 1.15005
2 4.93001 5.07216 7.66131
2 6.26061 6.6034 13.064
1 9.46286 10.1513 8.19111
1 9.70897 4.73698 12.7285
1 11.1711 5.61402 7.44183
1 8.66747 9.76982 12.5044
1 2.18467 9.73433 6.15386
1 7.39594 6.87603 11.7448
1 10.9241 3.56238 10.0555
1 5.34916 3.87584 2.17165
1 2.72032 6.61713 7.35513
1 6.0343 11.9442 12.436
1 8.74011 7.31603 6.5178
1 5.62099 9.21445 10.5678
1 8.03882 4.27215 7.35535
1 3.57309 1.98107 0.600796
1 2.35943 9.03673 2.96632
1 4.8349 10.9139 7.70878
1 1.79868 6.75477 0.518206
1 0.49662 11.987 8.24473
1 3.58151 4.13493 6.47146
1 7.85657 2.48508 11.2489
1 5.03587 6.72744 1.40288
1 7.78676 11.7329 6.27924
1 6.84134 2.59039 5.08436
1 5.78338 4.38313 8.93893
1 2.26761 3.82164 3.27096
1 9.3645 1.36897 8.47459
1 2.2811 8.70335 10.5758
1 11.7188 2.47003 6.54681
1 1.78922 11.6538 11.7525
1 3.43129 1.95652 8.45744
1 2.09454 3.60314 10.9
1 12.1211 4.89601 2.52403
96
 Atoms. Timestep: 22000
2 1.24915 7.54813 3.67964
2 4.93039 0.415647 0.409515
2 9.81637 4.40582 7.31179
2 4.50291 11.0091 9.75088
2 9.49425 7.33749 7.8273
2 7.59108 11.1166 12.3202
2 0.341025 8.85011 5.74451
2 6.39636 6.44396 9.77338
2 2.23685 7.51117 6.98778
2 7.58381 8.00335 12.1293
2 10.7526 7.17551 5.64392
2 5.21097 2.07117 1.617
2 11.4823 0.68586 5.49403
2 2.26301 12.24 8.87346
2 5.46342 9.43661 12.5968
2 6.23287 3.18826 3.56823
2 10.3887 4.99843 9.58074
2 2.82077 9.58863 12.2283
2 11.2519 5.42534 4.38931
2 5.46959 11.5276 11.8275
2 12.0982 5.20043 8.30156
2 5.66674 5.36182 1.97524
2 9.72273 11.0401 4.64828
2 6.63303 1.85194 6.44615
2 8.20531 12.507 5.64967
2 7.65231 0.925014 8.03037
2 12.1292 3.05105 6.76372
2 7.90663 3.90024 5.58849
2 0.927704 10.0383 8.72791
2 8.37976 5.8673 11.9687
2 9.01475 3.86416 11.2723
2 4.7251 3.38344 5.46736
2 3.10864 4.65856 6.27348
2 7.5431 1.19183 12.5097
2 9.12731 9.58289 7.48172
2 3.78078 12.0415 7.55268
2 9.36609 1.88609 7.0336
2 6.76014 3.38601 10.8823
2 5.36207 7.78295 1.82277
2 6.30221 10.9883 7.7936
2 0.628277 10.8956 0.264666
2 11.1136 0.790932 9.27081
2 2.99324 2.12974 1.60816
2 8.52329 1.21877 10.1903
2 3.58842 1.73995 9.29218
2 6.99048 5.0725 7.66774
2 2.61773 0.999896 12.8122
2 1.72611 5.64742 8.36092
2 4.17355 2.87364 11.9927
2 9.60503 11.9482 7.27529
2 3.00714 6.65329 1.15092
2 12.4883 0.488013 7.50851
2 2.3662 2.63989 4.14564
2 3.05934 10.0426 7.54736
2 1.74068 8.42659 1.16641
2 5.84301 3.9264 9.62526
2 0.967736 0.326281 10.6605
2 3.11909 1.60307 6.43313
2 1.55592 3.84806 10.3367
2 0.772585 6.68954 0.958831
2 4.01368 4.23591 2.55722
2 10.9517 5.24979 11.9117
2 4.25719 5.588 8.70908
2 6.0318 6.21081 12.4303
1 9.90638 12.1618 5.77972
1 9.7409 5.20994 11.1042
1 10.3124 5.81399 8.05453
1 7.03105 9.38636 12.2271
1 1.3065 9.26322 7.38249
1 7.01204 6.55542 11.1107
1 0.977402 5.15623 9.6941
1 5.59038 3.67997 2.25681
1 3.12541 5.8534 7.33554
1 6.51085 0.0977653 12.9064
1 9.43361 8.42352 6.52821
1 4.23292 10.3166 11.5259
1 9.21907 3.31051 6.40122
1 4.01081 1.79066 0.420305
1 12.1503 7.05736 4.71971
1 4.31729 10.4725 8.25671
1 1.58104 7.08208 2.26563
1 0.474691 11.9813 8.97419
1 3.10761 3.02895 5.63881
1 8.18159 2.16778 11.4218
1 4.65283 6.83246 0.852902
1 6.92016 0.199057 6.926
1 6.25217 3.11124 5.1816
1 5.81283 5.29305 8.72596
1 2.48429 3.24942 2.76957
1 9.25341 0.951009 8.5743
1 1.33523 9.53094 12.8799
1 0.207272 1.51321 6.38139
1 1.20548 0.251432 12.1556
1 3.21714 1.2261 7.82815