LAMMPS (2 Aug 2023 - Update 3)
units metal
boundary p p p
atom_style full
pair_style tersoff
neighbor 2.0 bin
neigh_modify delay 1




read_data SiO.data
Reading data file ...
  orthogonal box = (0 0 0) to (12.589463 12.589463 13.222096)
  1 by 1 by 1 MPI processor grid
WARNING: Atom style in data file atom-ID molecule-ID atom-type q x y z differs from currently defined atom style full (../read_data.cpp:621)
  reading atoms ...
  96 atoms
Finding 1-2 1-3 1-4 neighbors ...
  special bond factors lj:    0        0        0       
  special bond factors coul:  0        0        0       
     0 = max # of 1-2 neighbors
     0 = max # of 1-3 neighbors
     0 = max # of 1-4 neighbors
     1 = max # of special neighbors
  special bonds CPU = 0.000 seconds
  read_data CPU = 0.005 seconds
replicate 1 1 1
Replication is creating a 1x1x1 = 1 times larger system...
  orthogonal box = (0 0 0) to (12.589463 12.589463 13.222096)
  1 by 1 by 1 MPI processor grid
  96 atoms
Finding 1-2 1-3 1-4 neighbors ...
  special bond factors lj:    0        0        0       
  special bond factors coul:  0        0        0       
     0 = max # of 1-2 neighbors
     0 = max # of 1-3 neighbors
     0 = max # of 1-4 neighbors
     1 = max # of special neighbors
  special bonds CPU = 0.000 seconds
  replicate CPU = 0.001 seconds

pair_coeff * *  /root/Desktop/host/job1/SiO.tersoff Si O
Reading tersoff potential file /root/Desktop/host/job1/SiO.tersoff with DATE: 2010-08-16



group Si type 1
32 atoms in group Si
group O type 2
64 atoms in group O
#create_bonds many SiO SiO 1 0.5 10

dump dmp all xyz 2000 dump.lammpstrj



variable apot equal pe
# first number: number of steps to get current temp
# second number: calculate average n number of temp read above.
# third number: temp record (this must be larger than the one above )

variable atemp equal temp
fix temp_info all ave/time 10 200 2000 v_atemp file temperature.dat

#The cutoff used for pairwise computation (any pair style) and the
#associated neighbor list is the maximum cutoff that any compute
#can use. Atoms don't know any info about their neighbors
#further away than that.

# compute coord number
compute coor12 Si coord/atom cutoff 2.5 group O
compute coor11 Si coord/atom cutoff 2.5 group Si
compute coor22 O coord/atom cutoff 2.0 group O

compute sumcoor12 all reduce ave c_coor12
compute sumcoor11 all reduce ave c_coor11
compute sumcoor22 all reduce ave c_coor22


fix 12coord all ave/time  10 200 2000 c_sumcoor12 file Si-O_coord_number.dat
fix 11coord all ave/time  10 200 2000  c_sumcoor11 file Si-Si_coord_number.dat
fix 22coord all ave/time  10 200 2000  c_sumcoor22 file O-O_coord_number.dat




# unit cell information
variable avol equal vol
variable alx equal lx
variable aly equal ly
variable alz equal lz
fix cell_info all ave/time 10 200 2000 v_avol v_alx v_aly v_alz file cell_volume.dat


fix potential_info all ave/time 10 200 2000 v_apot file potential-energy.dat
thermo 1000



velocity all create 6000 430271 mom yes rot no dist gaussian
fix npt1 all npt temp 6000 5000 0.1 iso 0 0  1
timestep 0.001
#run 500
run 80000
Neighbor list info ...
  update: every = 1 steps, delay = 1 steps, check = yes
  max neighbors/atom: 2000, page size: 100000
  master list distance cutoff = 4.8
  ghost atom cutoff = 4.8
  binsize = 2.4, bins = 6 6 6
  4 neighbor lists, perpetual/occasional/extra = 1 3 0
  (1) pair tersoff, perpetual
      attributes: full, newton on
      pair build: full/bin
      stencil: full/bin/3d
      bin: standard
  (2) compute coord/atom, occasional, copy from (1)
      attributes: full, newton on
      pair build: copy
      stencil: none
      bin: none
  (3) compute coord/atom, occasional, copy from (1)
      attributes: full, newton on
      pair build: copy
      stencil: none
      bin: none
  (4) compute coord/atom, occasional, copy from (1)
      attributes: full, newton on
      pair build: copy
      stencil: none
      bin: none
Per MPI rank memory allocation (min/avg/max) = 6.021 | 6.021 | 6.021 Mbytes
   Step          Temp          E_pair         E_mol          TotEng         Press          Volume    
         0   6000          -638.06385      0             -564.38556      73800.118      2095.6304    
      1000   5675.5364     -563.45212      0             -493.75815      74390.902      2144.7368    
      2000   5532.6382     -560.09051      0             -492.1513       39463.285      2134.9834    
      3000   5502.4179     -546.28543      0             -478.71731     -39677.389      2405.4633    
      4000   6320.46       -558.42764      0             -480.8142      -8805.6839      2348.5651    
      5000   5942.2423     -553.67643      0             -480.7074       9793.8053      2178.1053    
      6000   5715.6005     -557.54735      0             -487.36141     -1992.0518      2315.2005    
      7000   6152.8795     -555.24485      0             -479.68926     -7364.0408      2263.8633    
      8000   5646.8243     -555.25378      0             -485.9124      -22071.869      2292.3802    
      9000   6200.4543     -544.53844      0             -468.39864      9668.8017      2161.6758    
     10000   6215.6893     -541.14526      0             -464.81838      17912.359      2144.517     
     11000   5601.117      -545.24249      0             -476.46237     -18394.934      2071.0588    
     12000   5590.0554     -533.78283      0             -465.13855     -42871.514      2191.5476    
     13000   5946.5137     -530.22721      0             -457.20572     -34715.229      1959.1273    
     14000   5215.2383     -535.82875      0             -471.78712     -40341.363      2086.4367    
     15000   5735.569      -545.78286      0             -475.35171      51191.152      1708.4287    
     16000   5579.9322     -534.85222      0             -466.33225     -37372.61       2108.0274    
     17000   4983.0614     -528.78965      0             -467.59909      18185.043      1858.4645    
     18000   5363.3445     -514.17213      0             -448.31179     -19411.282      1851.8974    
     19000   5643.4537     -527.33373      0             -458.03373      11869.074      2113.978     
     20000   6208.7542     -524.80129      0             -448.55957     -38249.676      1823.7033    
     21000   5342.7839     -538.64659      0             -473.03873      8570.9912      2019.4408    
     22000   6381.4229     -524.29623      0             -445.93419      9895.2929      1955.1996    
     23000   6144.9409     -525.39333      0             -449.93521      11234.054      1988.2436    
     24000   5630.0113     -528.75533      0             -459.62041     -3874.3352      1699.7629    
     25000   6204.9653     -531.60857      0             -455.41337      25027.038      1916.5115    
     26000   5611.3079     -535.8602       0             -466.95495      12228.531      1735.3831    
     27000   5697.264      -549.87282      0             -479.91205      74596.319      1503.1835    
     28000   5099.7156     -546.2654       0             -483.64235     -5279.3307      1518.7465    
     29000   5712.3431     -545.84169      0             -475.69576     -2920.8844      1642.1861    
     30000   5459.1906     -533.80006      0             -466.76276     -65748.531      1372.2757    
     31000   5352.0692     -543.5241       0             -477.80222      42820.644      1331.7588    
     32000   5923.0071     -525.30491      0             -452.57208      15733.933      1406.9363    
     33000   5222.4138     -542.32769      0             -478.19794     -16163.156      1455.796     
     34000   5862.0865     -542.14951      0             -470.16476     -10157.691      1406.053     
     35000   5264.7308     -538.98529      0             -474.3359      -1710.814       1455.2893    
     36000   5007.4515     -554.584        0             -493.09393     -35634.299      1491.0379    
     37000   5444.802      -535.29864      0             -468.43803     -52990.667      1498.888     
     38000   4530.9913     -534.3723       0             -478.73302     -11824.952      1509.4106    
     39000   5569.6677     -540.2939       0             -471.89997     -10860.454      1412.4826    
     40000   5246.7544     -532.82331      0             -468.39467      36295.433      1504.06      
     41000   5320.7629     -543.96431      0             -478.62687     -72215.659      1431.9515    
     42000   5806.4249     -537.71419      0             -466.41296     -7580.0332      1582.9513    
     43000   5626.0292     -546.88593      0             -477.79991      40920.272      1423.8624    
     44000   5766.6138     -533.73845      0             -462.92608      30291.418      1431.356     
     45000   5874.4575     -529.27905      0             -457.14239     -33580          1611.4152    
     46000   6493.3728     -539.96013      0             -460.22337     -55882.593      1615.9201    
     47000   5318.575      -542.59041      0             -477.27983     -17044.318      1738.1802    
     48000   6093.9397     -530.95481      0             -456.12297     -52602.94       1687.5756    
     49000   5911.8484     -535.94368      0             -463.34788     -17055.348      1476.9313    
     50000   5678.2228     -529.7965       0             -460.06955      459.61531      1481.4487    
     51000   5571.2965     -559.82899      0             -491.41507     -18297.554      1476.691     
     52000   5498.7127     -544.62079      0             -477.09817     -21249.831      1320.619     
     53000   5032.9522     -540.56217      0             -478.75895     -9153.0043      1579.0225    
     54000   5479.7345     -539.84417      0             -472.5546       10841.313      1563.277     
     55000   4733.0005     -555.6027       0             -497.48281     -23835.708      1468.2888    
     56000   5529.4346     -540.07317      0             -472.17329     -11674.343      1496.8577    
     57000   5719.4633     -556.9946       0             -486.76122      51756.858      1459.102     
     58000   4612.9362     -551.06553      0             -494.41999     -37503.344      1620.3365    
     59000   5565.4899     -557.78144      0             -489.43881      31948.294      1539.0458    
     60000   6130.1622     -542.35978      0             -467.08314      31941.92       1600.3211    
     61000   4963.254      -551.5185       0             -490.57116      57499.79       1349.432     
     62000   4458.8645     -550.97351      0             -496.21993      13490.788      1390.4876    
     63000   5944.3875     -569.13833      0             -496.14296      3296.1573      1380.226     
     64000   5886.0078     -553.56795      0             -481.28946     -19745.834      1461.8398    
     65000   5751.01       -557.04484      0             -486.42408      9309.571       1329.516     
     66000   5079.0182     -557.73861      0             -495.36972      21796.652      1323.5291    
     67000   4979.2597     -557.76484      0             -496.62095      27779.77       1439.288     
     68000   4942.884      -537.72135      0             -477.02415     -25662.561      1600.9991    
     69000   5160.9017     -542.1685       0             -478.7941       13799.906      1534.9908    
     70000   4988.0049     -555.10905      0             -493.85778      5997.9508      1606.5868    
     71000   4004.5115     -559.8233       0             -510.64905      619.53358      1536.7948    
     72000   5280.1787     -549.98682      0             -485.14773     -11257.874      1515.9714    
     73000   5134.2248     -559.43336      0             -496.38655      69877.965      1518.1392    
     74000   5670.3113     -548.28799      0             -478.65819      6114.7694      1524.2025    
     75000   5043.6245     -549.10119      0             -487.16692      2912.2579      1558.1751    
     76000   5152.3268     -551.65067      0             -488.38158      44600.12       1442.7689    
     77000   4934.9222     -551.13541      0             -490.53598      68990.606      1446.1644    
     78000   4759.1029     -556.44404      0             -498.00362      29793.795      1478.6752    
     79000   4646.7644     -559.31755      0             -502.25661     -6294.2667      1636.5331    
     80000   5527.9095     -542.37913      0             -474.49799     -6470.545       1618.3838    
Loop time of 6.63269 on 1 procs for 80000 steps with 96 atoms

Performance: 1042.111 ns/day, 0.023 hours/ns, 12061.466 timesteps/s, 1.158 Matom-step/s
99.3% CPU use with 1 MPI tasks x no OpenMP threads

MPI task timing breakdown:
Section |  min time  |  avg time  |  max time  |%varavg| %total
---------------------------------------------------------------
Pair    | 5.4907     | 5.4907     | 5.4907     |   0.0 | 82.78
Bond    | 0.0027595  | 0.0027595  | 0.0027595  |   0.0 |  0.04
Neigh   | 0.44712    | 0.44712    | 0.44712    |   0.0 |  6.74
Comm    | 0.20319    | 0.20319    | 0.20319    |   0.0 |  3.06
Output  | 0.010098   | 0.010098   | 0.010098   |   0.0 |  0.15
Modify  | 0.4435     | 0.4435     | 0.4435     |   0.0 |  6.69
Other   |            | 0.03531    |            |       |  0.53

Nlocal:             96 ave          96 max          96 min
Histogram: 1 0 0 0 0 0 0 0 0 0
Nghost:            521 ave         521 max         521 min
Histogram: 1 0 0 0 0 0 0 0 0 0
Neighs:              0 ave           0 max           0 min
Histogram: 1 0 0 0 0 0 0 0 0 0
FullNghs:         2692 ave        2692 max        2692 min
Histogram: 1 0 0 0 0 0 0 0 0 0

Total # of neighbors = 2692
Ave neighs/atom = 28.041667
Ave special neighs/atom = 0
Neighbor list builds = 3770
Dangerous builds = 0

fix npt1 all npt temp 5000 4000 0.1 iso 0 0 1
run 80000
Per MPI rank memory allocation (min/avg/max) = 8.549 | 8.549 | 8.549 Mbytes
   Step          Temp          E_pair         E_mol          TotEng         Press          Volume    
     80000   5527.9095     -542.37913      0             -474.49799     -6470.545       1618.3838    
     81000   5105.0748     -547.74059      0             -485.05173     -9041.5485      1565.1655    
     82000   4693.0997     -556.17953      0             -498.54961     -8749.1031      1619.3025    
     83000   4591.7365     -553.90237      0             -497.51716     -21748.994      1686.0553    
     84000   4659.3437     -558.74627      0             -501.53086     -79186.988      1699.5547    
     85000   5585.7535     -557.36375      0             -488.77229      17077.263      1496.4799    
     86000   5157.7165     -562.38285      0             -499.04756     -6572.9762      1478.9459    
     87000   5089.1851     -567.03591      0             -504.54217      93223.027      1450.6697    
     88000   5521.7705     -558.1074       0             -490.30164      5706.4106      1514.8899    
     89000   4797.0014     -563.68752      0             -504.78171     -21745.363      1745.5555    
     90000   4420.9661     -556.74617      0             -502.45797     -39651.325      1758.6625    
     91000   5442.1621     -551.71034      0             -484.88214      19532.246      1690.6516    
     92000   4514.738      -551.18909      0             -495.7494      -4005.0249      1639.5788    
     93000   4980.4739     -545.06081      0             -483.90201     -24050.878      1681.9804    
     94000   4698.2852     -555.93561      0             -498.24201     -39732.01       1489.2244    
     95000   4909.8846     -557.83564      0             -497.54366      37722.146      1453.4598    
     96000   4884.7287     -557.31409      0             -497.33102      3137.4425      1558.0781    
     97000   4938.0374     -562.33055      0             -501.69286     -6265.3343      1554.9547    
     98000   4704.1121     -565.52192      0             -507.75677     -25465.749      1619.12      
     99000   4967.141      -555.64007      0             -494.64501      30753.237      1578.5032    
    100000   4011.4563     -560.57081      0             -511.31128      7050.0216      1400.7501    
    101000   5204.3515     -555.5778       0             -491.66985      82137.779      1407.5451    
    102000   4138.4968     -552.54835      0             -501.72879     -30206.202      1513.3714    
    103000   5088.6532     -552.80875      0             -490.32154      60599.599      1573.7081    
    104000   4537.7809     -567.21538      0             -511.49273     -8652.2884      1512.209     
    105000   4256.1755     -562.30815      0             -510.04354     -18457.582      1513.4956    
    106000   5050.2634     -558.63427      0             -496.61848      27369.996      1491.3593    
    107000   5376.4577     -562.82112      0             -496.79975      26485.011      1517.316     
    108000   5038.4395     -563.64412      0             -501.77352     -10697.652      1552.1726    
    109000   4250.7825     -568.94127      0             -516.74287      6557.8693      1439.6124    
    110000   4885.9263     -558.24154      0             -498.24376      18012.063      1322.7645    
    111000   4567.5369     -561.74904      0             -505.66099      9769.1257      1471.0137    
    112000   5128.7613     -561.95408      0             -498.97436     -21614.688      1492.4837    
    113000   4426.0678     -562.91301      0             -508.56217      11331          1377.4415    
    114000   5188.3098     -566.01628      0             -502.30532      59436.889      1281.4813    
    115000   4802.482      -572.04954      0             -513.07643     -23524.29       1378.8259    
    116000   4627.9492     -563.68731      0             -506.85742      8046.6562      1395.8352    
    117000   3600.6289     -562.67639      0             -518.4617      -27860.948      1401.1143    
    118000   4739.406      -564.7427       0             -506.54415     -9811.6305      1319.2909    
    119000   4147.7618     -560.77272      0             -509.83939      7708.453       1327.1611    
    120000   4371.5318     -561.91531      0             -508.23415     -47344.324      1351.2465    
    121000   4490.088      -570.10888      0             -514.97188     -1915.3362      1412.9636    
    122000   4261.1951     -573.04686      0             -520.72061     -43570.563      1396.4773    
    123000   4515.6529     -568.30554      0             -512.85462     -44742.148      1385.2564    
    124000   4871.1592     -575.34965      0             -515.53321     -31795.436      1369.6273    
    125000   4490.3504     -568.18919      0             -513.04897     -21421.735      1379.1466    
    126000   4380.588      -563.51386      0             -509.7215       2161.6528      1370.5749    
    127000   4916.6662     -573.78869      0             -513.41344      5506.3342      1342.8197    
    128000   4956.8205     -563.93277      0             -503.06443      45313.993      1369.7427    
    129000   4563.753      -561.83638      0             -505.7948       7863.6881      1402.6509    
    130000   4984.1749     -574.54443      0             -513.34019      30347.553      1305.0413    
    131000   4576.8889     -564.31697      0             -508.11409     -62951.844      1430.515     
    132000   4779.1539     -566.76045      0             -508.0738      -33352.839      1370.0576    
    133000   4623.2379     -566.28724      0             -509.51521      7436.1486      1267.7415    
    134000   4948.4144     -570.47414      0             -509.70902      35940.14       1316.8818    
    135000   4060.5233     -575.26583      0             -525.40376     -13825.246      1396.098     
    136000   4888.7127     -566.14844      0             -506.11644     -38985.81       1461.5428    
    137000   3821.455      -573.74102      0             -526.81465      37641.758      1304.7776    
    138000   4919.3607     -571.13346      0             -510.72512      14918.263      1409.0859    
    139000   4147.8042     -578.2601       0             -527.32625      14805.584      1370.563     
    140000   4981.0107     -569.48608      0             -508.32069     -2057.5146      1412.8519    
    141000   3674.4728     -571.56506      0             -526.44358     -61801.856      1471.808     
    142000   4310.7724     -565.87235      0             -512.9373      -18484.418      1457.776     
    143000   4248.8932     -578.53161      0             -526.35642      3692.4272      1420.9572    
    144000   4050.7358     -575.38817      0             -525.6463       38740.557      1398.314     
    145000   4338.132      -567.1412       0             -513.87018      45228.687      1491.6734    
    146000   3721.8074     -575.02462      0             -529.32189     -9871.2277      1407.4047    
    147000   3863.5905     -569.33015      0             -521.88637      10580.677      1381.3536    
    148000   3890.517      -577.48487      0             -529.71044      24116.235      1326.539     
    149000   3956.9472     -575.5026       0             -526.91242     -24694.784      1374.7012    
    150000   4420.9587     -560.50183      0             -506.21373     -2530.8414      1413.5271    
    151000   4048.94       -576.61337      0             -526.89355     -34504.27       1428.4908    
    152000   3651.0001     -574.3509       0             -529.51767      29059.368      1351.7362    
    153000   4531.3431     -579.08618      0             -523.44258     -14576.368      1387.1577    
    154000   4176.9364     -580.85062      0             -529.55904     -39993.827      1390.4779    
    155000   4353.5141     -575.68901      0             -522.22911     -29618.379      1404.0192    
    156000   3952.0385     -566.42479      0             -517.89488      61785.442      1377.6593    
    157000   4022.5746     -570.80421      0             -521.40814      10009.982      1526.1575    
    158000   3849.6883     -577.30093      0             -530.02785     -30656.391      1455.264     
    159000   4161.6805     -574.01838      0             -522.91413      24393.174      1484.9016    
    160000   4414.2397     -571.8872       0             -517.6816       6640.3149      1442.9411    
Loop time of 6.75271 on 1 procs for 80000 steps with 96 atoms

Performance: 1023.590 ns/day, 0.023 hours/ns, 11847.102 timesteps/s, 1.137 Matom-step/s
99.4% CPU use with 1 MPI tasks x no OpenMP threads

MPI task timing breakdown:
Section |  min time  |  avg time  |  max time  |%varavg| %total
---------------------------------------------------------------
Pair    | 5.6364     | 5.6364     | 5.6364     |   0.0 | 83.47
Bond    | 0.0027705  | 0.0027705  | 0.0027705  |   0.0 |  0.04
Neigh   | 0.41828    | 0.41828    | 0.41828    |   0.0 |  6.19
Comm    | 0.212      | 0.212      | 0.212      |   0.0 |  3.14
Output  | 0.0094077  | 0.0094077  | 0.0094077  |   0.0 |  0.14
Modify  | 0.43953    | 0.43953    | 0.43953    |   0.0 |  6.51
Other   |            | 0.03428    |            |       |  0.51

Nlocal:             96 ave          96 max          96 min
Histogram: 1 0 0 0 0 0 0 0 0 0
Nghost:            510 ave         510 max         510 min
Histogram: 1 0 0 0 0 0 0 0 0 0
Neighs:              0 ave           0 max           0 min
Histogram: 1 0 0 0 0 0 0 0 0 0
FullNghs:         2874 ave        2874 max        2874 min
Histogram: 1 0 0 0 0 0 0 0 0 0

Total # of neighbors = 2874
Ave neighs/atom = 29.9375
Ave special neighs/atom = 0
Neighbor list builds = 3315
Dangerous builds = 0

fix npt1 all npt temp 4000 4000 0.1 iso 0 0 1
run 80000
Per MPI rank memory allocation (min/avg/max) = 8.549 | 8.549 | 8.549 Mbytes
   Step          Temp          E_pair         E_mol          TotEng         Press          Volume    
    160000   4414.2397     -571.8872       0             -517.6816       6640.3149      1442.9411    
    161000   4245.0655     -582.00805      0             -529.87986      1138.6054      1403.2619    
    162000   3764.1667     -584.25913      0             -538.03624      27776.343      1464.551     
    163000   3726.2854     -572.74413      0             -526.98641      7388.9865      1508.8516    
    164000   4203.1648     -578.02615      0             -526.41249      12395.539      1509.9551    
    165000   3518.8018     -576.37324      0             -533.16336      48586.174      1471.3519    
    166000   4351.0038     -573.19842      0             -519.76934     -38068.236      1553.0919    
    167000   4115.7466     -575.15741      0             -524.61722     -6132.7156      1582.1181    
    168000   4297.661      -585.57469      0             -532.80064      16868.997      1574.8557    
    169000   4154.8824     -582.15199      0             -531.13122     -21848.463      1566.0832    
    170000   3242.4211     -579.46275      0             -539.64675     -21255.626      1587.5332    
    171000   3960.8358     -580.2323       0             -531.59437     -26486.985      1612.6048    
    172000   4805.1378     -571.97173      0             -512.96601     -12625.573      1671.7766    
    173000   4175.9409     -583.49201      0             -532.21265     -43488.04       1680.1191    
    174000   4759.8117     -572.49002      0             -514.04089     -17862.664      1615.5684    
    175000   3956.7979     -575.60528      0             -527.01694     -5980.8657      1666.0645    
    176000   3820.6876     -575.59221      0             -528.67526     -8798.4006      1593.7793    
    177000   4040.6731     -570.37911      0             -520.7608      -23528.293      1543.516     
    178000   4211.2099     -579.88783      0             -528.17538      24649.499      1488.6793    
    179000   3961.7764     -583.81717      0             -535.16769      40013.183      1523.7492    
    180000   3959.3388     -577.44931      0             -528.82976     -24521.446      1599.7292    
    181000   3782.9541     -570.64032      0             -524.18672     -20636.681      1661.726     
    182000   4237.0805     -580.86976      0             -528.83963      10024.803      1600.9223    
    183000   3371.9353     -576.67842      0             -535.27202     -32962.139      1579.1106    
    184000   3675.0358     -573.77148      0             -528.64309     -40088.442      1666.338     
    185000   3872.3694     -573.32903      0             -525.77744     -38397.347      1613.5795    
    186000   4517.1294     -582.47157      0             -527.00251     -31720.54       1594.8813    
    187000   4012.2487     -581.11433      0             -531.84507      35561.85       1507.5423    
    188000   3791.1593     -576.51956      0             -529.96521     -54.027043      1492.6692    
    189000   4806.863      -579.02154      0             -519.99464      7286.4356      1540.9564    
    190000   3994.2683     -577.82311      0             -528.77464      12100.995      1513.7891    
    191000   4207.5601     -584.23447      0             -532.56684     -1075.5176      1555.9043    
    192000   4468.8969     -571.55731      0             -516.68053     -8517.795       1569.915     
    193000   3690.4942     -577.24844      0             -531.93023      9625.0055      1549.8678    
    194000   4135.8802     -573.96848      0             -523.18106      37103.343      1516.8911    
    195000   3483.6575     -568.22029      0             -525.44198     -14260.289      1532.3348    
    196000   3617.7023     -577.77225      0             -533.3479      -27433.808      1582.2019    
    197000   4494.8282     -576.51526      0             -521.32006      4856.0742      1522.8115    
    198000   3715.1051     -572.67822      0             -527.05779     -18071.696      1555.6442    
    199000   4372.0112     -586.10601      0             -532.41896      7077.4969      1585.5584    
    200000   4055.7232     -574.48939      0             -524.68627      15928.628      1566.372     
    201000   3464.3101     -575.93543      0             -533.3947      -45438.343      1595.7236    
    202000   4587.9484     -573.40996      0             -517.07126      4349.4395      1603.1458    
    203000   4361.7188     -577.90413      0             -524.34347     -22393.527      1556.0572    
    204000   4329.01       -582.78939      0             -529.63039     -19481.99       1584.1641    
    205000   4289.7214     -572.11687      0             -519.44032      34659.116      1622.0156    
    206000   4469.4798     -580.71857      0             -525.83464     -15703.656      1593.545     
    207000   3909.0818     -588.53208      0             -540.52968     -33866.518      1601.7706    
    208000   4307.6684     -579.53471      0             -526.63777      44950.487      1535.1148    
    209000   3771.0267     -566.87841      0             -520.57128      1418.1449      1559.5569    
    210000   3697.3575     -573.53335      0             -528.13086      22129.645      1589.2933    
    211000   3893.4309     -576.81773      0             -529.00751      1026.2262      1583.4361    
    212000   4280.3968     -572.39078      0             -519.82873      19697.536      1540.4458    
    213000   3484.9943     -576.01242      0             -533.21768     -2634.8125      1510.6737    
    214000   3933.6698     -571.78411      0             -523.47978      19620.175      1507.4393    
    215000   3366.4257     -586.27699      0             -544.93825      15525.523      1532.4997    
    216000   3612.1128     -575.71534      0             -531.35963      8992.9441      1539.1364    
    217000   3958.8356     -584.5908       0             -535.97743      3615.3807      1564.526     
    218000   4049.6323     -581.11282      0             -531.38449      17371.96       1535.9334    
    219000   4351.4093     -565.97594      0             -512.54188      24696.124      1562.9395    
    220000   3587.6855     -578.7862       0             -534.73045     -41617.939      1597.6694    
    221000   3754.9601     -582.50698      0             -536.39714     -52129.575      1579.2224    
    222000   4219.2734     -582.91075      0             -531.09928     -6653.2661      1575.0919    
    223000   4207.4901     -570.89543      0             -519.22865      15437.545      1573.7825    
    224000   3977.7219     -578.74992      0             -529.90464      47767.458      1510.1856    
    225000   3235.3291     -579.22904      0             -539.50013     -13341.299      1502.3914    
    226000   3871.1334     -576.14029      0             -528.60388     -25498.438      1546.4726    
    227000   3682.2105     -574.2314       0             -529.01491     -1128.0516      1515.4221    
    228000   3459.055      -578.50824      0             -536.03203      1647.032       1550.4678    
    229000   3987.2259     -576.66987      0             -527.70788     -40564.69       1492.9891    
    230000   4421.9381     -581.98874      0             -527.68861      15417.645      1468.6473    
    231000   3365.462      -580.81519      0             -539.48828     -10612.708      1541.2828    
    232000   3915.1729     -581.76103      0             -533.68383      7774.9405      1570.4913    
    233000   5363.6316     -579.44251      0             -513.57865      30004.452      1563.5999    
    234000   3967.2723     -576.29105      0             -527.57409     -7875.4486      1575.1476    
    235000   3875.9032     -574.79866      0             -527.20368     -13219.609      1562.6181    
    236000   4724.3479     -575.08744      0             -517.0738      -33637.136      1584.1365    
    237000   3992.9584     -574.41021      0             -525.37783     -20681.804      1665.2759    
    238000   4063.552      -580.40468      0             -530.50542      16202.791      1616.5945    
    239000   4291.8501     -569.83667      0             -517.13398      22742.195      1556.9976    
    240000   4103.7572     -567.83313      0             -517.44016     -2458.9738      1546.2208    
Loop time of 6.27804 on 1 procs for 80000 steps with 96 atoms

Performance: 1100.981 ns/day, 0.022 hours/ns, 12742.837 timesteps/s, 1.223 Matom-step/s
99.1% CPU use with 1 MPI tasks x no OpenMP threads

MPI task timing breakdown:
Section |  min time  |  avg time  |  max time  |%varavg| %total
---------------------------------------------------------------
Pair    | 5.218      | 5.218      | 5.218      |   0.0 | 83.12
Bond    | 0.0029553  | 0.0029553  | 0.0029553  |   0.0 |  0.05
Neigh   | 0.37686    | 0.37686    | 0.37686    |   0.0 |  6.00
Comm    | 0.19603    | 0.19603    | 0.19603    |   0.0 |  3.12
Output  | 0.011311   | 0.011311   | 0.011311   |   0.0 |  0.18
Modify  | 0.43947    | 0.43947    | 0.43947    |   0.0 |  7.00
Other   |            | 0.0334     |            |       |  0.53

Nlocal:             96 ave          96 max          96 min
Histogram: 1 0 0 0 0 0 0 0 0 0
Nghost:            503 ave         503 max         503 min
Histogram: 1 0 0 0 0 0 0 0 0 0
Neighs:              0 ave           0 max           0 min
Histogram: 1 0 0 0 0 0 0 0 0 0
FullNghs:         2598 ave        2598 max        2598 min
Histogram: 1 0 0 0 0 0 0 0 0 0

Total # of neighbors = 2598
Ave neighs/atom = 27.0625
Ave special neighs/atom = 0
Neighbor list builds = 3101
Dangerous builds = 0

fix npt1 all npt temp 4000 3000 0.1 iso 0 0  1
run 80000
Per MPI rank memory allocation (min/avg/max) = 8.549 | 8.549 | 8.549 Mbytes
   Step          Temp          E_pair         E_mol          TotEng         Press          Volume    
    240000   4103.7572     -567.83313      0             -517.44016     -2458.9738      1546.2208    
    241000   3932.3457     -570.88956      0             -522.60148      7648.7816      1541.0713    
    242000   4218.9568     -572.28834      0             -520.48076     -3770.6718      1644.083     
    243000   3666.8313     -577.84947      0             -532.82184      29471.43       1588.2678    
    244000   4065.5713     -572.49461      0             -522.57056      53550.912      1475.2079    
    245000   4136.1929     -573.84061      0             -523.04935      31899.027      1481.0285    
    246000   3646.0002     -571.3414       0             -526.56956      21624.016      1483.1658    
    247000   3920.4644     -576.65921      0             -528.51703      41832.074      1416.4482    
    248000   4005.8378     -574.22323      0             -525.03268      37144.843      1390.0261    
    249000   3828.0242     -575.54618      0             -528.53914      23411.295      1414.5116    
    250000   3744.3395     -576.46208      0             -530.48267      3437.5821      1467.2728    
    251000   3589.7797     -577.49647      0             -533.415       -2783.6538      1477.3482    
    252000   4517.8885     -574.75914      0             -519.28076     -21443.726      1447.5099    
    253000   4299.8706     -582.05259      0             -529.25141      14889.026      1418.6527    
    254000   3901.0182     -587.61437      0             -539.71099      31034.337      1359.6559    
    255000   3731.719      -573.31445      0             -527.49001      22887.291      1377.9309    
    256000   3039.4213     -579.5812       0             -542.25798     -36739.396      1396.9682    
    257000   3492.7545     -570.8956       0             -528.00558      14060.677      1458.088     
    258000   3341.3231     -574.58932      0             -533.55883      12134.654      1452.93      
    259000   3752.9154     -575.89512      0             -529.81039      7314.6949      1533.9993    
    260000   3504.9289     -569.68213      0             -526.6426       36286.733      1392.2408    
    261000   3629.1187     -581.57458      0             -537.01004      23074.908      1319.4956    
    262000   3753.3805     -577.21171      0             -531.12127      324.38167      1322.3524    
    263000   3577.2378     -581.11435      0             -537.18689      63173.578      1346.2004    
    264000   4328.3625     -579.54392      0             -526.39287      8273.8777      1371.6707    
    265000   4037.3136     -581.47521      0             -531.89815     -32646.934      1407.9715    
    266000   3563.8843     -582.33508      0             -538.5716      -8100.2744      1446.2546    
    267000   3359.5647     -580.77398      0             -539.51949      15524.725      1430.4127    
    268000   3537.2186     -573.59285      0             -530.15682      66074.004      1354.2115    
    269000   3579.379      -582.31553      0             -538.36178     -2787.8334      1366.5567    
    270000   3836.2637     -584.92099      0             -537.81277      20745.668      1402.271     
    271000   3400.3533     -580.73473      0             -538.97937     -9946.2593      1440.0042    
    272000   3664.6733     -577.24489      0             -532.24375     -26003.411      1437.1855    
    273000   4037.7358     -582.94977      0             -533.36753      6966.6216      1425.9686    
    274000   3606.5343     -582.37432      0             -538.08711     -16370.812      1413.8933    
    275000   3854.1895     -587.73119      0             -540.40285     -21939.076      1449.9796    
    276000   3518.3745     -585.73351      0             -542.52887     -2212.0734      1458.2218    
    277000   3931.0255     -583.45977      0             -535.1879       3070.5162      1459.5492    
    278000   3449.7176     -577.65846      0             -535.29692     -4423.1048      1441.6032    
    279000   3381.5313     -584.07865      0             -542.55441      33840.784      1414.6894    
    280000   3007.5003     -587.40446      0             -550.47321     -7734.6089      1391.3558    
    281000   3890.8234     -586.27186      0             -538.49366      23043.13       1399.5359    
    282000   3036.5877     -584.86204      0             -547.57362      65.124775      1442.0414    
    283000   3482.4499     -585.30994      0             -542.54645     -22245.156      1452.3335    
    284000   4016.7059     -578.55578      0             -529.23178      16499.345      1411.4066    
    285000   3549.3832     -588.4762       0             -544.89079     -20385.147      1381.6766    
    286000   3473.2847     -585.17851      0             -542.52756      24900.883      1371.8846    
    287000   3397.4637     -577.16916      0             -535.44928      23816.536      1424.0785    
    288000   3065.0281     -581.61545      0             -543.97778     -41907.98       1391.1494    
    289000   3901.6404     -586.63816      0             -538.72713     -3990.1043      1400.9471    
    290000   3022.2235     -578.58953      0             -541.47749     -22309.551      1371.7211    
    291000   3124.3019     -581.50432      0             -543.13878      1576.018       1366.1029    
    292000   3425.6398     -583.08108      0             -541.01521      12608.106      1402.3716    
    293000   3300.5063     -585.16298      0             -544.63371      1806.8996      1410.7926    
    294000   3276.9782     -589.14426      0             -548.90391     -21513.527      1403.5604    
    295000   2673.1352     -585.81322      0             -552.98789     -22515.057      1422.2281    
    296000   3903.7618     -584.82624      0             -536.88916      9211.2652      1418.1815    
    297000   3248.5158     -582.90846      0             -543.01762      35992.302      1407.156     
    298000   2805.1448     -585.5568       0             -551.11042     -3402.7622      1404.2389    
    299000   3593.1442     -585.1809       0             -541.05811      56881.97       1454.4303    
    300000   3450.6424     -585.72425      0             -543.35135     -22541.439      1426.3804    
    301000   3410.8494     -590.40023      0             -548.51598     -15174.076      1385.7647    
    302000   3780.2759     -586.75711      0             -540.3364      -20633.55       1357.0616    
    303000   3032.6995     -579.54262      0             -542.30194      52189.051      1360.1068    
    304000   3056.3571     -588.36546      0             -550.83427     -44532.731      1348.8326    
    305000   2819.7992     -589.57576      0             -554.94943      69020.302      1269.6482    
    306000   3081.2598     -589.0127       0             -551.17571      1842.6192      1342.5473    
    307000   2874.9081     -587.6118       0             -552.30875     -10100.635      1408.1274    
    308000   3125.5565     -585.37334      0             -546.9924      -21918.427      1439.7487    
    309000   2858.1285     -586.5949       0             -551.4979      -10065.742      1421.8633    
    310000   3168.5493     -593.30235      0             -554.39347      8779.389       1439.7865    
    311000   3149.5325     -580.30624      0             -541.63088     -11407.728      1440.1802    
    312000   2887.6669     -589.95         0             -554.49027     -12682.662      1414.0425    
    313000   3110.8439     -583.23948      0             -545.03921     -14510.313      1419.5042    
    314000   3094.4012     -591.24397      0             -553.24561      8382.2349      1413.109     
    315000   2775.6372     -581.50147      0             -547.41744     -6009.9711      1444.8848    
    316000   3042.3202     -589.05119      0             -551.69237     -46107.387      1463.012     
    317000   3321.6847     -589.87742      0             -549.08808     -23117.1        1377.2543    
    318000   3451.7026     -591.64486      0             -549.25894      18666.259      1346.8738    
    319000   2610.5853     -589.54545      0             -557.48821      25976.798      1411.0151    
    320000   3295.2859     -586.90386      0             -546.43869     -6402.924       1360.4538    
Loop time of 6.63265 on 1 procs for 80000 steps with 96 atoms

Performance: 1042.117 ns/day, 0.023 hours/ns, 12061.537 timesteps/s, 1.158 Matom-step/s
98.1% CPU use with 1 MPI tasks x no OpenMP threads

MPI task timing breakdown:
Section |  min time  |  avg time  |  max time  |%varavg| %total
---------------------------------------------------------------
Pair    | 5.4809     | 5.4809     | 5.4809     |   0.0 | 82.64
Bond    | 0.0029151  | 0.0029151  | 0.0029151  |   0.0 |  0.04
Neigh   | 0.36288    | 0.36288    | 0.36288    |   0.0 |  5.47
Comm    | 0.20725    | 0.20725    | 0.20725    |   0.0 |  3.12
Output  | 0.011773   | 0.011773   | 0.011773   |   0.0 |  0.18
Modify  | 0.53214    | 0.53214    | 0.53214    |   0.0 |  8.02
Other   |            | 0.03476    |            |       |  0.52

Nlocal:             96 ave          96 max          96 min
Histogram: 1 0 0 0 0 0 0 0 0 0
Nghost:            536 ave         536 max         536 min
Histogram: 1 0 0 0 0 0 0 0 0 0
Neighs:              0 ave           0 max           0 min
Histogram: 1 0 0 0 0 0 0 0 0 0
FullNghs:         3042 ave        3042 max        3042 min
Histogram: 1 0 0 0 0 0 0 0 0 0

Total # of neighbors = 3042
Ave neighs/atom = 31.6875
Ave special neighs/atom = 0
Neighbor list builds = 2829
Dangerous builds = 0

fix npt1 all npt temp 3000 3000 0.1 iso 0 0 1
run 80000
Per MPI rank memory allocation (min/avg/max) = 8.549 | 8.549 | 8.549 Mbytes
   Step          Temp          E_pair         E_mol          TotEng         Press          Volume    
    320000   3295.2859     -586.90386      0             -546.43869     -6402.924       1360.4538    
    321000   2807.3645     -590.47834      0             -556.00471      3798.1012      1387.7041    
    322000   3115.836      -591.68939      0             -553.42781      21866.905      1446.5436    
    323000   3377.091      -584.56063      0             -543.09092     -28873.457      1427.1618    
    324000   2567.2248     -590.70556      0             -559.18077     -13872.317      1411.5334    
    325000   2807.2713     -590.19518      0             -555.7227       27967.677      1361.4669    
    326000   2901.5208     -588.72585      0             -553.09601     -9275.4954      1410.4133    
    327000   2709.3795     -584.98433      0             -551.71392     -5353.4685      1357.8617    
    328000   3081.3495     -593.02123      0             -555.18314     -55636.677      1405.1332    
    329000   2921.1769     -595.29687      0             -559.42565      3493.6325      1342.6362    
    330000   3208.3584     -592.86713      0             -553.46941      28494.137      1329.1815    
    331000   2779.8742     -591.99915      0             -557.86309     -4706.3654      1390.3193    
    332000   2943.4461     -588.06579      0             -551.92112      13524.129      1401.0016    
    333000   2609.702      -590.17234      0             -558.12595     -14558.181      1348.3436    
    334000   3034.2654     -596.97761      0             -559.7177       17246.363      1322.8846    
    335000   2633.8427     -589.97965      0             -557.63682      8668.9293      1357.5536    
    336000   3187.4863     -584.80977      0             -545.66835      54038.379      1357.7603    
    337000   2885.3795     -592.64426      0             -557.21263     -39961.516      1399.208     
    338000   3015.6402     -584.38289      0             -547.35169     -4847.9406      1403.2283    
    339000   3136.4466     -587.12443      0             -548.60977     -27621.426      1390.8027    
    340000   3131.4617     -595.72452      0             -557.27107     -26282.287      1381.1119    
    341000   3047.7028     -588.67692      0             -551.252       -29286.757      1372.9956    
    342000   2516.5125     -597.15834      0             -566.25628     -11379.224      1391.8132    
    343000   3310.186      -586.80616      0             -546.15802      25280.303      1345.2963    
    344000   2566.3887     -590.89307      0             -559.37855      6077.184       1361.8556    
    345000   3201.7795     -586.87922      0             -547.56228      1630.3208      1447.3593    
    346000   2889.6974     -587.45788      0             -551.97323     -12606.263      1381.1177    
    347000   2722.1935     -594.50673      0             -561.07897     -20967.438      1414.4955    
    348000   3379.9806     -595.47906      0             -553.97387      57117.716      1327.3385    
    349000   3043.7427     -597.4266       0             -560.05031      49128.604      1294.5857    
    350000   3146.4929     -594.05448      0             -555.41645      9674.2145      1305.1434    
    351000   2934.5801     -600.76532      0             -564.72951     -23025.399      1342.1148    
    352000   3222.9157     -596.67627      0             -557.09979     -2925.8643      1341.7211    
    353000   3014.7426     -590.4785       0             -553.45833     -26269.985      1428.9992    
    354000   2776.8651     -594.29596      0             -560.19685     -10370.372      1428.9756    
    355000   3015.6248     -588.53108      0             -551.50007      22372.435      1410.3413    
    356000   3151.0328     -592.97612      0             -554.28234      46748.241      1360.4266    
    357000   3316.9945     -590.80009      0             -550.06834      29811.151      1346.135     
    358000   2662.5231     -588.08086      0             -555.38584     -39624.395      1400.9819    
    359000   3047.8104     -593.11842      0             -555.69218     -6839.6515      1352.5973    
    360000   3324.7412     -593.88049      0             -553.05362     -25875.644      1365.6115    
    361000   2977.5319     -591.50136      0             -554.93812     -38390.978      1375.3651    
    362000   2857.92       -595.85104      0             -560.7566       36339.607      1364.3055    
    363000   2977.4609     -592.3727       0             -555.81033     -19304.178      1396.312     
    364000   2966.586      -585.00821      0             -548.57938     -10633.463      1345.9568    
    365000   3349.9181     -591.4894       0             -550.35336      7295.519       1339.0066    
    366000   3147.8086     -591.44108      0             -552.78689     -18254.054      1429.5953    
    367000   3305.2164     -589.31487      0             -548.72776      13685.311      1380.2313    
    368000   3178.3415     -592.25287      0             -553.22375     -6700.1815      1345.0503    
    369000   2860.1445     -593.78341      0             -558.66165     -7513.8251      1397.3729    
    370000   3044.0943     -589.9196       0             -552.53899      15382.96       1350.7476    
    371000   3170.5433     -591.83483      0             -552.90146      22546.929      1349.0705    
    372000   2742.0683     -594.11494      0             -560.44313     -21279.515      1368.3958    
    373000   3396.0652     -590.8026       0             -549.09989      6721.0723      1369.4026    
    374000   2990.8334     -592.16781      0             -555.44123     -24480.658      1328.4953    
    375000   2904.7337     -595.41261      0             -559.74331      30915.818      1343.4565    
    376000   3301.2544     -593.2617       0             -552.72324     -43996.151      1441.8206    
    377000   3403.7746     -591.26999      0             -549.47261     -30292.479      1423.7761    
    378000   2710.7395     -590.56469      0             -557.27758      26484.378      1351.5614    
    379000   2937.4633     -591.43352      0             -555.36231     -22386.173      1376.8562    
    380000   3072.7954     -594.70638      0             -556.97334     -16546.097      1372.9414    
    381000   3045.5821     -590.05442      0             -552.65554      86729.361      1301.354     
    382000   2642.4688     -589.66496      0             -557.2162      -27588.61       1422.8777    
    383000   3276.2406     -589.116        0             -548.88471     -11299.733      1406.6672    
    384000   2702.5353     -592.27421      0             -559.08785      34042.49       1373.4417    
    385000   2785.3643     -593.029        0             -558.82552     -7667.2069      1391.621     
    386000   3250.205      -594.26461      0             -554.35302     -9745.5801      1392.5313    
    387000   2984.8464     -588.20321      0             -551.55015     -48662.785      1440.1151    
    388000   3383.8648     -587.50414      0             -545.95125      21322.443      1384.0133    
    389000   2706.3843     -590.7587       0             -557.52508     -17054.71       1362.4947    
    390000   2477.0387     -590.72839      0             -560.31106     -24633.435      1381.0761    
    391000   2991.1166     -587.53119      0             -550.80114     -11093.995      1370.2049    
    392000   3380.5202     -591.20011      0             -549.68829      67798.725      1331.5193    
    393000   2901.1531     -589.78039      0             -554.15506     -14555.037      1350.7862    
    394000   3010.5394     -590.68548      0             -553.71692      261.79026      1396.4846    
    395000   3511.8699     -594.50838      0             -551.38362      33303.981      1422.3864    
    396000   3383.7327     -593.13999      0             -551.58872     -10955.386      1428.6649    
    397000   2933.4551     -589.54338      0             -553.52139      14140.642      1407.371     
    398000   2780.9426     -587.69652      0             -553.54734     -6562.5058      1376.4469    
    399000   2733.2491     -596.25129      0             -562.68777     -12539.94       1406.4952    
    400000   3707.2552     -587.66521      0             -542.14117      19694.099      1391.1731    
Loop time of 7.39328 on 1 procs for 80000 steps with 96 atoms

Performance: 934.903 ns/day, 0.026 hours/ns, 10820.640 timesteps/s, 1.039 Matom-step/s
98.8% CPU use with 1 MPI tasks x no OpenMP threads

MPI task timing breakdown:
Section |  min time  |  avg time  |  max time  |%varavg| %total
---------------------------------------------------------------
Pair    | 6.207      | 6.207      | 6.207      |   0.0 | 83.95
Bond    | 0.0035527  | 0.0035527  | 0.0035527  |   0.0 |  0.05
Neigh   | 0.34447    | 0.34447    | 0.34447    |   0.0 |  4.66
Comm    | 0.22026    | 0.22026    | 0.22026    |   0.0 |  2.98
Output  | 0.014722   | 0.014722   | 0.014722   |   0.0 |  0.20
Modify  | 0.56146    | 0.56146    | 0.56146    |   0.0 |  7.59
Other   |            | 0.04186    |            |       |  0.57

Nlocal:             96 ave          96 max          96 min
Histogram: 1 0 0 0 0 0 0 0 0 0
Nghost:            509 ave         509 max         509 min
Histogram: 1 0 0 0 0 0 0 0 0 0
Neighs:              0 ave           0 max           0 min
Histogram: 1 0 0 0 0 0 0 0 0 0
FullNghs:         3032 ave        3032 max        3032 min
Histogram: 1 0 0 0 0 0 0 0 0 0

Total # of neighbors = 3032
Ave neighs/atom = 31.583333
Ave special neighs/atom = 0
Neighbor list builds = 2526
Dangerous builds = 0

fix npt1 all npt temp 3000 2000 0.1 iso 0 0 1
run 80000
Per MPI rank memory allocation (min/avg/max) = 8.549 | 8.549 | 8.549 Mbytes
   Step          Temp          E_pair         E_mol          TotEng         Press          Volume    
    400000   3707.2552     -587.66521      0             -542.14117      19694.099      1391.1731    
    401000   2875.4693     -592.09353      0             -556.78359      9073.5813      1404.0642    
    402000   3110.9795     -595.36115      0             -557.15921     -37097.563      1415.3558    
    403000   2556.6754     -594.67308      0             -563.27784      22561.598      1382.948     
    404000   3076.5077     -589.25321      0             -551.47458     -26104.606      1378.6026    
    405000   2796.5194     -589.40217      0             -555.06171     -8889.0654      1383.1315    
    406000   2682.0877     -595.41149      0             -562.47622     -32453.918      1438.7285    
    407000   2977.4286     -596.48107      0             -559.9191       8972.5426      1397.2616    
    408000   2876.7122     -593.73665      0             -558.41145      7121.8358      1362.9172    
    409000   2816.6313     -594.38504      0             -559.79762     -3188.9787      1342.4137    
    410000   2997.4129     -591.43245      0             -554.62508      163.84718      1381.9889    
    411000   2902.657      -590.04081      0             -554.39701      9066.3451      1422.046     
    412000   2544.7145     -595.14776      0             -563.89939     -32315.295      1415.6567    
    413000   2971.3681     -592.73766      0             -556.25011     -20651.442      1396.2595    
    414000   2906.1755     -600.84813      0             -565.16112      75756.842      1356.7816    
    415000   2896.6562     -593.37898      0             -557.80887     -2553.9964      1324.0522    
    416000   2390.35       -595.48677      0             -566.13396      31572.622      1326.6777    
    417000   2822.3533     -591.37524      0             -556.71755      29589.358      1354.9688    
    418000   2804.0138     -596.04503      0             -561.61255      6667.006       1353.6159    
    419000   2605.0852     -594.09372      0             -562.10401      20285.468      1293.9287    
    420000   3008.3874     -594.70846      0             -557.76632     -1729.2505      1306.4505    
    421000   2876.1672     -596.12967      0             -560.81116     -24772.428      1354.0899    
    422000   2517.8224     -596.06299      0             -565.14485     -50193.954      1348.7465    
    423000   2641.4401     -592.4059       0             -559.96977     -20353.069      1331.4612    
    424000   2451.4103     -598.07002      0             -567.9674       5738.621       1315.8121    
    425000   2836.8312     -600.33236      0             -565.49688      24934.826      1281.4392    
    426000   2534.7148     -593.70749      0             -562.58192     -31401.735      1312.8853    
    427000   2770.5337     -588.42247      0             -554.40111     -2409.5733      1375.6922    
    428000   2424.4054     -595.99212      0             -566.22111      2345.1247      1394.9602    
    429000   2959.0965     -593.24609      0             -556.90923      24859.543      1378.7845    
    430000   2544.4596     -598.82619      0             -567.58096      15195.188      1363.2167    
    431000   2675.275      -598.57643      0             -565.72482      6190.6344      1328.2809    
    432000   2633.1991     -592.01221      0             -559.67728      37775.524      1359.5739    
    433000   2421.1023     -596.70624      0             -566.97579      23640.765      1364.2479    
    434000   2529.7669     -595.0998       0             -564.03499     -1355.8415      1341.6429    
    435000   2310.4723     -599.38823      0             -571.01629     -21713.377      1384.09      
    436000   2226.5374     -595.10532      0             -567.76408     -21825.48       1374.0382    
    437000   2462.8723     -595.58801      0             -565.34464     -4401.9343      1340.8118    
    438000   2285.1347     -596.7273       0             -568.6665       273.1563       1317.1466    
    439000   2789.1792     -600.98111      0             -566.73079     -15118.676      1344.3809    
    440000   2502.7386     -598.57263      0             -567.83972      760.54625      1338.4037    
    441000   2884.9978     -600.16928      0             -564.74233      8384.4611      1359.5157    
    442000   2677.9829     -601.07634      0             -568.19148     -18285.443      1384.8606    
    443000   2371.7031     -597.53166      0             -568.40783      25932.8        1317.4951    
    444000   2291.747      -598.58051      0             -570.43851      24010.739      1325.3919    
    445000   2108.2018     -601.8921       0             -576.00398     -36194.695      1375.2578    
    446000   2222.2596     -597.15251      0             -569.8638       21454.823      1325.3693    
    447000   2503.2195     -603.96138      0             -573.22256      6049.8162      1295.7433    
    448000   2261.4584     -600.5958       0             -572.82573      24211.439      1289.5851    
    449000   2561.3977     -600.2063       0             -568.75307     -20735.432      1358.5891    
    450000   2549.8711     -599.80653      0             -568.49484     -5714.7064      1363.0611    
    451000   2551.6792     -598.45854      0             -567.12465     -126.70825      1326.7107    
    452000   2320.622      -602.79819      0             -574.30161     -15951.83       1307.1933    
    453000   1995.2059     -604.71334      0             -580.21279      31313.043      1299.8794    
    454000   2720.312      -605.88598      0             -572.48133      17390.625      1310.3667    
    455000   2306.702      -602.67827      0             -574.35263     -26753.08       1352.5882    
    456000   2083.326      -600.27935      0             -574.69671      27555.766      1337.7085    
    457000   2289.1874     -602.73569      0             -574.62513      1298.8911      1339.261     
    458000   2181.0381     -599.25436      0             -572.47183     -14413.173      1355.547     
    459000   2164.1151     -603.8312       0             -577.25648      2525.2902      1321.2979    
    460000   2381.0035     -603.57363      0             -574.33559     -4977.3399      1269.5935    
    461000   1886.9068     -606.53121      0             -583.36054      15978.034      1292.2026    
    462000   2432.5915     -598.12439      0             -568.25287      10201.427      1331.7828    
    463000   2360.8687     -601.74045      0             -572.74966      958.74796      1349.8351    
    464000   2080.956      -601.22224      0             -575.6687      -25384.542      1349.0215    
    465000   2796.7894     -600.70889      0             -566.36512      23839.325      1320.3812    
    466000   2106.2437     -602.88975      0             -577.02568     -16792.406      1341.2513    
    467000   2571.7638     -604.30044      0             -572.71991      3015.6973      1348.5254    
    468000   1947.9005     -601.13677      0             -577.21711     -27066.818      1335.7513    
    469000   2242.2191     -607.4518       0             -579.91799      25528.428      1313.0964    
    470000   2448.939      -602.51793      0             -572.44566      43232.804      1301.9506    
    471000   2246.151      -606.67956      0             -579.09747     -20704.612      1371.3021    
    472000   1996.5713     -599.46292      0             -574.9456      -13175.317      1338.6497    
    473000   2077.5949     -605.23283      0             -579.72056      15046.077      1282.9318    
    474000   2152.7271     -607.08318      0             -580.6483       6975.0365      1342.5613    
    475000   1880.3498     -603.01235      0             -579.92219     -10240.78       1333.2622    
    476000   1956.1211     -606.40885      0             -582.38824      23339.545      1307.0794    
    477000   1853.4035     -601.53451      0             -578.77525     -10537.928      1318.7391    
    478000   1664.3128     -603.35441      0             -582.91713     -29869.45       1337.5701    
    479000   1925.9825     -607.16596      0             -583.51545      55178.13       1259.5908    
    480000   1876.6284     -607.35152      0             -584.30706     -21214.098      1342.4204    
Loop time of 7.5407 on 1 procs for 80000 steps with 96 atoms

Performance: 916.625 ns/day, 0.026 hours/ns, 10609.091 timesteps/s, 1.018 Matom-step/s
99.2% CPU use with 1 MPI tasks x no OpenMP threads

MPI task timing breakdown:
Section |  min time  |  avg time  |  max time  |%varavg| %total
---------------------------------------------------------------
Pair    | 6.4268     | 6.4268     | 6.4268     |   0.0 | 85.23
Bond    | 0.0035472  | 0.0035472  | 0.0035472  |   0.0 |  0.05
Neigh   | 0.30236    | 0.30236    | 0.30236    |   0.0 |  4.01
Comm    | 0.21888    | 0.21888    | 0.21888    |   0.0 |  2.90
Output  | 0.015653   | 0.015653   | 0.015653   |   0.0 |  0.21
Modify  | 0.53051    | 0.53051    | 0.53051    |   0.0 |  7.04
Other   |            | 0.04299    |            |       |  0.57

Nlocal:             96 ave          96 max          96 min
Histogram: 1 0 0 0 0 0 0 0 0 0
Nghost:            510 ave         510 max         510 min
Histogram: 1 0 0 0 0 0 0 0 0 0
Neighs:              0 ave           0 max           0 min
Histogram: 1 0 0 0 0 0 0 0 0 0
FullNghs:         3130 ave        3130 max        3130 min
Histogram: 1 0 0 0 0 0 0 0 0 0

Total # of neighbors = 3130
Ave neighs/atom = 32.604167
Ave special neighs/atom = 0
Neighbor list builds = 2180
Dangerous builds = 0

fix npt1 all npt temp 2000 2000 0.1 iso 0 0 1
run 80000
Per MPI rank memory allocation (min/avg/max) = 8.549 | 8.549 | 8.549 Mbytes
   Step          Temp          E_pair         E_mol          TotEng         Press          Volume    
    480000   1876.6284     -607.35152      0             -584.30706     -21214.098      1342.4204    
    481000   2168.7102     -611.17436      0             -584.54322      13447.558      1315.1628    
    482000   2114.207      -605.85905      0             -579.89719      12668.259      1301.7263    
    483000   2155.6203     -604.39482      0             -577.92442      1488.4334      1290.9332    
    484000   1777.625      -605.25584      0             -583.42711     -10074.621      1347.7681    
    485000   1786.0463     -606.20701      0             -584.27487      4666.1444      1311.8725    
    486000   2249.1268     -603.53733      0             -575.9187       9488.8887      1313.6054    
    487000   2068.8714     -608.85337      0             -583.44822     -62.673909      1314.7758    
    488000   1868.3847     -607.38818      0             -584.44495     -4273.7982      1313.3556    
    489000   2052.8311     -606.162        0             -580.95382      4510.4772      1322.0636    
    490000   1941.0406     -608.0543       0             -584.21887      17438.132      1294.1931    
    491000   2030.7189     -603.8334       0             -578.89675      22403.051      1346.9507    
    492000   1893.9476     -608.03672      0             -584.77959     -14862.967      1323.7424    
    493000   2002.5301     -605.31833      0             -580.72783     -35853.173      1317.5677    
    494000   2016.5156     -608.12418      0             -583.36195     -5083.4218      1326.8565    
    495000   2228.4999     -606.63251      0             -579.26717      44575.831      1263.2871    
    496000   1899.482      -606.10617      0             -582.78108     -15755.883      1348.9098    
    497000   1746.8435     -607.53556      0             -586.08483      17058.387      1304.0535    
    498000   1834.029      -603.77491      0             -581.25356     -12016.261      1322.246     
    499000   2542.7113     -603.95156      0             -572.72779      7413.428       1291.3259    
    500000   1995.6128     -602.04035      0             -577.53479      7323.7122      1338.2589    
    501000   1976.1368     -601.55952      0             -577.29313      5381.5358      1313.8237    
    502000   1829.6934     -602.82819      0             -580.36008     -13733.106      1342.504     
    503000   1882.1975     -605.34604      0             -582.2332      -36209.384      1316.7458    
    504000   2353.9647     -603.81938      0             -574.91337      33185.775      1301.2603    
    505000   1959.2162     -604.7756       0             -580.71698     -2488.3194      1316.2871    
    506000   1978.6733     -608.02189      0             -583.72435      30647.813      1259.8786    
    507000   2070.6925     -605.39485      0             -579.96734      27811.651      1290.4173    
    508000   1911.7847     -607.24476      0             -583.76859      12279.826      1279.7187    
    509000   1933.7811     -605.46651      0             -581.72023     -4797.5141      1289.7158    
    510000   1856.9476     -606.84241      0             -584.03962     -8316.2025      1298.7137    
    511000   2091.7373     -602.28035      0             -576.59441     -30478.863      1367.5242    
    512000   2051.7105     -605.18227      0             -579.98785      7062.792       1278.6727    
    513000   1829.1137     -608.70741      0             -586.24642      18631.52       1280.8985    
    514000   2340.2427     -607.55572      0             -578.81821      17998.273      1272.8313    
    515000   2119.9814     -604.80427      0             -578.77151     -12304.159      1303.8239    
    516000   1979.7226     -608.87342      0             -584.56299      14432.402      1293.3277    
    517000   1933.7879     -608.58186      0             -584.8355      -37042.705      1305.348     
    518000   1949.1942     -609.48676      0             -585.55121     -6043.9309      1275.2276    
    519000   1779.8301     -608.72717      0             -586.87137     -15965.422      1324.0277    
    520000   2012.9411     -608.5218       0             -583.80346      16039.207      1288.7875    
    521000   1917.5376     -607.73885      0             -584.19204     -14767.911      1319.2762    
    522000   1902.4249     -606.20886      0             -582.84763      9789.3552      1278.6533    
    523000   1992.024      -602.803        0             -578.34152     -37080.227      1354.5528    
    524000   1662.8692     -611.46126      0             -591.0417      -15603.867      1291.9572    
    525000   1946.4247     -603.75916      0             -579.85762     -8072.0509      1315.0754    
    526000   1939.553      -605.32297      0             -581.50581     -16298.794      1327.9152    
    527000   1955.9832     -610.62201      0             -586.60309      29823.472      1256.4545    
    528000   2049.4113     -608.18752      0             -583.02133     -14475.261      1314.2578    
    529000   1927.903      -608.15429      0             -584.48019     -16398.82       1324.5618    
    530000   2009.3653     -606.10975      0             -581.43532      6299.934       1344.9844    
    531000   2062.7465     -606.22505      0             -580.89511      6881.62        1319.5506    
    532000   2102.5302     -609.42756      0             -583.60909     -47609.58       1361.2638    
    533000   1701.7587     -603.38502      0             -582.48791      8982.8221      1322.2055    
    534000   1964.2092     -605.25683      0             -581.1369      -10109.805      1298.8516    
    535000   1972.0189     -604.32683      0             -580.111        3563.525       1346.758     
    536000   1743.9771     -606.35022      0             -584.93468     -5747.4874      1350.9212    
    537000   2034.1634     -604.19484      0             -579.2159      -11199.168      1349.6643    
    538000   1812.6584     -602.39906      0             -580.14013      3482.5311      1363.0157    
    539000   2142.4735     -606.44435      0             -580.13539      28046.186      1282.7127    
    540000   1852.6235     -608.20052      0             -585.45084      24350.661      1315.5846    
    541000   2124.5348     -605.44499      0             -579.35631      23850.343      1326.1465    
    542000   1745.9283     -607.07362      0             -585.63412     -1886.3156      1307.6511    
    543000   1820.5453     -604.25354      0             -581.89776      7121.4384      1329.6929    
    544000   2279.5756     -605.45189      0             -577.45936     -5394.2688      1325.6316    
    545000   2022.7925     -606.79712      0             -581.95781     -12142.481      1335.591     
    546000   2105.2989     -607.73873      0             -581.88626      18004.839      1312.6936    
    547000   1871.9461     -605.27709      0             -582.29013     -16983.027      1337.7049    
    548000   2112.8802     -608.33716      0             -582.39159      4551.2067      1340.3737    
    549000   1917.3713     -604.94114      0             -581.39637     -19488.038      1360.0202    
    550000   2122.2925     -605.41752      0             -579.35638     -28699.664      1334.8963    
    551000   1968.5423     -607.9092       0             -583.73607     -1902.9544      1295.4362    
    552000   1766.1186     -606.8217       0             -585.13427     -2218.3975      1304.422     
    553000   2123.3629     -603.39466      0             -577.32037     -26865.645      1369.0103    
    554000   1998.8833     -606.82367      0             -582.27796     -11100.918      1343.851     
    555000   1868.6515     -607.0647       0             -584.1182       10947.971      1352.3829    
    556000   2096.0191     -605.0148       0             -579.27629     -10523.421      1370.8257    
    557000   1850.8128     -603.80396      0             -581.07651      16796.743      1350.3159    
    558000   2209.2328     -607.41626      0             -580.28752     -10325.12       1346.7839    
    559000   2095.0763     -606.14538      0             -580.41845     -31494.514      1403.2105    
    560000   2101.637      -602.4768       0             -576.6693       2787.6647      1341.4327    
Loop time of 7.20871 on 1 procs for 80000 steps with 96 atoms

Performance: 958.841 ns/day, 0.025 hours/ns, 11097.691 timesteps/s, 1.065 Matom-step/s
98.3% CPU use with 1 MPI tasks x no OpenMP threads

MPI task timing breakdown:
Section |  min time  |  avg time  |  max time  |%varavg| %total
---------------------------------------------------------------
Pair    | 6.1429     | 6.1429     | 6.1429     |   0.0 | 85.21
Bond    | 0.0031107  | 0.0031107  | 0.0031107  |   0.0 |  0.04
Neigh   | 0.24525    | 0.24525    | 0.24525    |   0.0 |  3.40
Comm    | 0.2073     | 0.2073     | 0.2073     |   0.0 |  2.88
Output  | 0.01617    | 0.01617    | 0.01617    |   0.0 |  0.22
Modify  | 0.55689    | 0.55689    | 0.55689    |   0.0 |  7.73
Other   |            | 0.0371     |            |       |  0.51

Nlocal:             96 ave          96 max          96 min
Histogram: 1 0 0 0 0 0 0 0 0 0
Nghost:            522 ave         522 max         522 min
Histogram: 1 0 0 0 0 0 0 0 0 0
Neighs:              0 ave           0 max           0 min
Histogram: 1 0 0 0 0 0 0 0 0 0
FullNghs:         3068 ave        3068 max        3068 min
Histogram: 1 0 0 0 0 0 0 0 0 0

Total # of neighbors = 3068
Ave neighs/atom = 31.958333
Ave special neighs/atom = 0
Neighbor list builds = 1820
Dangerous builds = 0

fix npt1 all npt temp 2000 1000 0.1 iso 0 0 1
run 80000
Per MPI rank memory allocation (min/avg/max) = 8.549 | 8.549 | 8.549 Mbytes
   Step          Temp          E_pair         E_mol          TotEng         Press          Volume    
    560000   2101.637      -602.4768       0             -576.6693       2787.6647      1341.4327    
    561000   1878.0883     -603.93554      0             -580.87316      6857.2278      1360.8458    
    562000   1912.1653     -603.53476      0             -580.05392      5883.7501      1317.3305    
    563000   2025.613      -606.04537      0             -581.17142     -7417.751       1353.021     
    564000   1700.3893     -603.62819      0             -582.74789     -6281.1561      1320.9375    
    565000   2123.8949     -603.64937      0             -577.56855      13266.086      1395.3336    
    566000   1991.4107     -606.45955      0             -582.00559     -19709.296      1362.7916    
    567000   1996.5167     -605.89936      0             -581.38271     -9330.702       1342.8585    
    568000   1810.3504     -610.24644      0             -588.01586      24046.723      1349.2658    
    569000   1746.7606     -604.83343      0             -583.38371      11594.767      1340.1715    
    570000   1898.7976     -603.6229       0             -580.30621     -10864.037      1343.1298    
    571000   1863.1102     -607.57248      0             -584.69402      2544.6712      1345.6977    
    572000   1858.1041     -604.69057      0             -581.87358     -20377.434      1334.8247    
    573000   1626.9337     -605.96938      0             -585.9911       20839.187      1327.4783    
    574000   1758.0935     -607.26694      0             -585.67806     -16090.742      1357.8981    
    575000   1914.4019     -607.26057      0             -583.75226     -16973.012      1354.3331    
    576000   1634.2212     -608.98444      0             -588.91667      6280.269       1321.7287    
    577000   1779.5932     -611.66685      0             -589.81395     -12671.948      1340.1146    
    578000   1770.4106     -605.40215      0             -583.66201     -38584.074      1371.3079    
    579000   1752.8575     -607.6394       0             -586.11481      11511.228      1306.9026    
    580000   1602.8553     -609.01576      0             -589.33316     -4953.3308      1366.3787    
    581000   1881.3957     -609.42761      0             -586.32461      5020.3027      1339.2093    
    582000   1629.4997     -611.94533      0             -591.93555      34658.413      1335.2064    
    583000   1653.3889     -606.99059      0             -586.68745     -35520.229      1393.7792    
    584000   1710.5803     -606.75442      0             -585.74898      46923.305      1323.6301    
    585000   1432.4601     -609.49926      0             -591.90906      25559.451      1306.3437    
    586000   1569.3763     -608.67636      0             -589.40486      10635.7        1332.8369    
    587000   1485.3742     -608.89461      0             -590.65464     -17164.69       1379.8958    
    588000   1573.3205     -607.44689      0             -588.12696      23084.875      1332.5493    
    589000   1509.1591     -609.08435      0             -590.55231      3333.947       1355.9711    
    590000   1821.8931     -608.3812       0             -586.00887     -1012.4558      1357.9764    
    591000   1715.8198     -610.25016      0             -589.18039      16466.852      1328.8571    
    592000   1562.5314     -612.66733      0             -593.47989      1344.7572      1329.3435    
    593000   1557.9535     -609.59457      0             -590.46335     -25507.465      1347.6737    
    594000   1558.8742     -610.85288      0             -591.71035     -441.81971      1342.1402    
    595000   1780.0921     -607.48271      0             -585.62369     -9825.5329      1338.8651    
    596000   1569.6427     -611.40814      0             -592.13338     -715.33391      1352.3957    
    597000   1486.8665     -605.76948      0             -587.51119      62330.725      1291.8014    
    598000   1536.5151     -613.51574      0             -594.64778     -13120.755      1360.8377    
    599000   1594.7914     -608.71206      0             -589.12848      13276.811      1347.5877    
    600000   1412.0045     -608.9313       0             -591.59228     -18586.845      1339.0246    
    601000   1387.1391     -612.49119      0             -595.45752     -16693.091      1329.9585    
    602000   1428.4197     -610.78987      0             -593.24928      20413.065      1327.9879    
    603000   1433.756      -612.65722      0             -595.05111     -30084.946      1363.4904    
    604000   1409.4268     -612.42924      0             -595.12188      20668.569      1367.5877    
    605000   1598.853      -614.13783      0             -594.50437      31189.784      1309.6521    
    606000   1295.7022     -613.11146      0             -597.20061     -22245.038      1348.9407    
    607000   1465.5803     -611.54018      0             -593.54327      2546.0492      1361.4807    
    608000   1301.3112     -614.94366      0             -598.96393      23147.623      1330.1023    
    609000   1467.0407     -613.95177      0             -595.93693     -1849.7277      1300.8872    
    610000   1343.1531     -613.23338      0             -596.73985     -16131.513      1343.3196    
    611000   1460.8175     -614.31188      0             -596.37346     -1721.1913      1343.4419    
    612000   1182.3838     -614.53049      0             -600.01115     -2213.7341      1302.2233    
    613000   1274.2882     -612.00667      0             -596.35878     -9362.4046      1368.145     
    614000   1444.4675     -611.86971      0             -594.13207     -576.33775      1325.9261    
    615000   1273.6978     -614.94857      0             -599.30792      1806.6461      1310.7072    
    616000   1290.3749     -615.36692      0             -599.52148     -7459.7047      1354.6074    
    617000   1357.5387     -612.49802      0             -595.82784     -2350.3123      1324.8073    
    618000   1377.1628     -615.18847      0             -598.27731     -3235.058       1340.3305    
    619000   1145.2854     -613.84911      0             -599.78533      4065.0372      1340.0896    
    620000   1246.8638     -615.94655      0             -600.63542      6829.358       1328.2417    
    621000   1162.3407     -615.47428      0             -601.20107     -6416.0034      1341.1865    
    622000   1242.3281     -617.38959      0             -602.13416      25580.267      1294.398     
    623000   1188.009      -615.11238      0             -600.52397     -6394.2888      1310.8247    
    624000   1280.9034     -616.05066      0             -600.32153     -5766.7384      1335.1861    
    625000   1091.9159     -614.2817       0             -600.87329     -979.24438      1348.7361    
    626000   1179.7564     -614.59494      0             -600.10787     -1070.7011      1346.2129    
    627000   1129.449      -616.62061      0             -602.7513       12442.271      1310.6569    
    628000   1116.6449     -615.28131      0             -601.56923     -2692.6303      1314.7947    
    629000   1114.8345     -616.04004      0             -602.35019      11141.291      1313.3247    
    630000   1221.4547     -615.21066      0             -600.21154     -15579.183      1325.4566    
[...]
Histogram: 1 0 0 0 0 0 0 0 0 0
Neighs:              0 ave           0 max           0 min
Histogram: 1 0 0 0 0 0 0 0 0 0
FullNghs:         3226 ave        3226 max        3226 min
Histogram: 1 0 0 0 0 0 0 0 0 0

Total # of neighbors = 3226
Ave neighs/atom = 33.604167
Ave special neighs/atom = 0
Neighbor list builds = 77
Dangerous builds = 0


fix npt1 all npt temp 500 10 0.1 iso 0 0 1
run 80000
Per MPI rank memory allocation (min/avg/max) = 8.549 | 8.549 | 8.549 Mbytes
   Step          Temp          E_pair         E_mol          TotEng         Press          Volume    
    880000   514.188       -624.66456      0             -618.35048      13396.293      1308.6943    
    881000   489.57718     -625.17671      0             -619.16485      21632.67       1273.6122    
    882000   469.25031     -625.24936      0             -619.4871       15289.56       1316.2826    
    883000   425.46417     -625.55217      0             -620.32759      6940.4409      1279.8349    
    884000   500.18366     -624.14437      0             -618.00225     -11452.953      1321.5132    
    885000   404.19938     -625.49245      0             -620.52899      1922.6983      1272.3163    
    886000   492.99396     -625.24097      0             -619.18715      4382.0789      1308.6637    
    887000   453.1158      -625.73614      0             -620.172        3626.1799      1284.0613    
    888000   382.95625     -625.98039      0             -621.2778       12580.888      1293.3662    
    889000   498.80946     -625.83724      0             -619.712        118.22951      1303.6333    
    890000   443.25289     -626.24213      0             -620.79912     -2801.5535      1289.2474    
    891000   483.35463     -626.1913       0             -620.25584     -5006.4498      1295.6168    
    892000   351.51088     -625.54903      0             -621.23257      4515.9393      1306.1211    
    893000   447.41366     -626.15468      0             -620.66056     -8621.3091      1300.74      
    894000   461.09498     -624.82773      0             -619.16562     -21645.285      1324.4039    
    895000   369.96849     -626.19269      0             -621.64958      5605.0025      1302.5843    
    896000   377.7378      -626.24555      0             -621.60704      4789.1312      1286.9456    
    897000   448.44712     -626.01662      0             -620.50982      3892.8324      1298.6527    
    898000   367.59366     -626.54175      0             -622.0278       14922.836      1268.5848    
    899000   399.68991     -626.56041      0             -621.65233     -5976.9328      1294.1549    
    900000   326.65193     -626.67003      0             -622.65883      8039.3628      1291.6961    
    901000   401.75028     -626.4328       0             -621.49943      19605.261      1287.2122    
    902000   303.15522     -627.20325      0             -623.48059     -7895.3193      1295.3264    
    903000   365.46147     -627.00741      0             -622.51965     -12733.868      1296.6861    
    904000   428.35581     -626.52092      0             -621.26083     -6000.8785      1314.1844    
    905000   339.58099     -627.38558      0             -623.21562     -443.89923      1287.1631    
    906000   296.39024     -626.55734      0             -622.91775      11773.176      1272.3204    
    907000   318.58331     -627.50382      0             -623.5917       9013.9036      1273.8065    
    908000   301.93309     -627.62338      0             -623.91572     -9498.7817      1291.8389    
    909000   362.31564     -627.57525      0             -623.12612      5836.7022      1285.564     
    910000   297.01818     -627.61344      0             -623.96614      4161.6148      1298.319     
    911000   288.87142     -627.40607      0             -623.85881      2126.2062      1292.3954    
    912000   311.57758     -627.65794      0             -623.83186     -524.86052      1288.691     
    913000   306.47717     -627.66266      0             -623.89921      8671.4192      1284.1123    
    914000   297.18243     -628.06576      0             -624.41645     -706.20148      1291.629     
    915000   271.4492      -627.42558      0             -624.09226      7506.9453      1297.2015    
    916000   272.7711      -627.86632      0             -624.51677     -3533.9998      1300.6797    
    917000   275.09568     -627.79881      0             -624.42072     -2283.5495      1278.6653    
    918000   218.09024     -628.45732      0             -625.77923      2348.1684      1278.0238    
    919000   280.42738     -628.01291      0             -624.56934     -1570.1248      1289.1116    
    920000   246.83701     -628.01266      0             -624.98157      7166.0725      1282.9099    
    921000   220.10934     -628.26943      0             -625.56655     -16898.926      1296.3538    
    922000   263.22869     -628.14335      0             -624.91098     -5812.9808      1286.4898    
    923000   233.57738     -628.18901      0             -625.32074     -286.16145      1291.3129    
    924000   220.85247     -628.76177      0             -626.04976      130.19112      1276.499     
    925000   211.51528     -628.17512      0             -625.57777      1465.6816      1288.6834    
    926000   190.68214     -628.46483      0             -626.12331      3690.752       1285.4754    
    927000   210.33723     -628.86296      0             -626.28008     -7923.0105      1289.0474    
    928000   212.99988     -628.6348       0             -626.01922      7059.8658      1283.3073    
    929000   204.12656     -629.38821      0             -626.88159      9725.215       1279.9703    
    930000   207.54735     -629.09173      0             -626.5431       5349.9724      1286.3327    
    931000   190.24338     -629.38252      0             -627.04639     -3118.1074      1286.5946    
    932000   202.94895     -628.80978      0             -626.31762      3870.2878      1282.0695    
    933000   166.11462     -629.26805      0             -627.22821      1002.49        1292.9484    
    934000   176.88107     -628.97108      0             -626.79903      11294.627      1288.9184    
    935000   163.47717     -629.43653      0             -627.42908      2942.1004      1269.8822    
    936000   131.97341     -629.38652      0             -627.76592      1127.5591      1285.7791    
    937000   154.42815     -629.68774      0             -627.7914       901.95764      1291.0366    
    938000   136.57975     -629.87569      0             -628.19853     -2678.5842      1294.9494    
    939000   152.86916     -629.7874       0             -627.91021     -4751.8376      1286.6959    
    940000   109.19448     -630.06513      0             -628.72425     -485.96222      1286.1205    
    941000   125.81069     -629.59422      0             -628.0493       4193.7966      1286.2132    
    942000   124.77535     -629.97258      0             -628.44037     -8272.8457      1295.4329    
    943000   94.617363     -629.93362      0             -628.77174     -1702.594       1281.6757    
    944000   93.102228     -630.23793      0             -629.09466     -1528.7012      1289.6563    
    945000   99.347565     -630.08068      0             -628.86072      5722.5758      1280.4006    
    946000   89.70148      -630.27826      0             -629.17675     -2150.5334      1284.0401    
    947000   92.126851     -630.3639       0             -629.23261      3094.1996      1289.0356    
    948000   75.762615     -630.40777      0             -629.47743     -4386.8236      1288.5462    
    949000   89.19796      -630.32613      0             -629.2308      -6396.2082      1285.1761    
    950000   70.271558     -630.60778      0             -629.74486     -6981.2766      1283.6804    
    951000   69.667925     -630.56616      0             -629.71066     -2032.4686      1283.8337    
    952000   61.093049     -630.77306      0             -630.02286     -1948.9733      1288.4799    
    953000   48.593206     -630.72092      0             -630.1242      -2129.7556      1286.5543    
    954000   46.72963      -630.94016      0             -630.36633     -5010.0211      1284.1514    
    955000   42.565854     -630.94478      0             -630.42208     -1381.3903      1287.2266    
    956000   33.123125     -630.95171      0             -630.54497      5779.5317      1280.6025    
    957000   27.788111     -631.08531      0             -630.74408     -2016.4947      1283.7747    
    958000   22.072058     -631.18516      0             -630.91412     -2393.8767      1282.115     
    959000   15.637595     -631.25214      0             -631.06011      687.74918      1285.861     
    960000   9.4265559     -631.3409       0             -631.22514     -645.91171      1281.4563    
Loop time of 5.67269 on 1 procs for 80000 steps with 96 atoms

Performance: 1218.470 ns/day, 0.020 hours/ns, 14102.656 timesteps/s, 1.354 Matom-step/s
98.9% CPU use with 1 MPI tasks x no OpenMP threads

MPI task timing breakdown:
Section |  min time  |  avg time  |  max time  |%varavg| %total
---------------------------------------------------------------
Pair    | 5.0077     | 5.0077     | 5.0077     |   0.0 | 88.28
Bond    | 0.0025874  | 0.0025874  | 0.0025874  |   0.0 |  0.05
Neigh   | 0.001328   | 0.001328   | 0.001328   |   0.0 |  0.02
Comm    | 0.17487    | 0.17487    | 0.17487    |   0.0 |  3.08
Output  | 0.011183   | 0.011183   | 0.011183   |   0.0 |  0.20
Modify  | 0.45086    | 0.45086    | 0.45086    |   0.0 |  7.95
Other   |            | 0.02413    |            |       |  0.43

Nlocal:             96 ave          96 max          96 min
Histogram: 1 0 0 0 0 0 0 0 0 0
Nghost:            522 ave         522 max         522 min
Histogram: 1 0 0 0 0 0 0 0 0 0
Neighs:              0 ave           0 max           0 min
Histogram: 1 0 0 0 0 0 0 0 0 0
FullNghs:         3168 ave        3168 max        3168 min
Histogram: 1 0 0 0 0 0 0 0 0 0

Total # of neighbors = 3168
Ave neighs/atom = 33
Ave special neighs/atom = 0
Neighbor list builds = 10
Dangerous builds = 0

fix npt1 all npt temp 10 10 0.1 iso 0 0 1
run 80000
Per MPI rank memory allocation (min/avg/max) = 8.549 | 8.549 | 8.549 Mbytes
   Step          Temp          E_pair         E_mol          TotEng         Press          Volume    
    960000   9.4265559     -631.3409       0             -631.22514     -645.91171      1281.4563    
    961000   10.085422     -631.33586      0             -631.21201      724.44283      1279.2229    
    962000   8.5295566     -631.33916      0             -631.23442      4562.6984      1279.0782    
    963000   10.086623     -631.31671      0             -631.19285      304.00207      1280.4352    
    964000   8.0078463     -631.32319      0             -631.22486     -3594.9646      1286.4968    
    965000   9.8284862     -631.32707      0             -631.20638     -1702.0147      1284.8349    
    966000   10.4829       -631.32905      0             -631.20032     -3164.7414      1283.4119    
    967000   10.13231      -631.35426      0             -631.22984      1293.1018      1282.2449    
    968000   9.4866144     -631.35912      0             -631.24263      101.77782      1281.0712    
    969000   10.214288     -631.33091      0             -631.20548      1381.4395      1281.7624    
    970000   8.6081891     -631.34153      0             -631.23583     -842.70213      1283.3394    
    971000   10.627359     -631.33253      0             -631.20203      1475.7676      1281.2821    
    972000   9.3572268     -631.35169      0             -631.23679      116.58931      1281.4034    
    973000   11.573163     -631.34163      0             -631.19952      2825.4233      1279.8167    
    974000   10.32118      -631.35045      0             -631.22371      1882.9379      1280.8669    
    975000   10.329463     -631.33426      0             -631.20742      893.57514      1282.1581    
    976000   10.934418     -631.34295      0             -631.20868      2530.1412      1281.4256    
    977000   9.0719541     -631.33777      0             -631.22637     -872.19187      1281.2321    
    978000   11.009891     -631.33378      0             -631.19858     -232.61836      1280.3348    
    979000   10.343937     -631.33637      0             -631.20935      524.83821      1280.9004    
    980000   8.7305304     -631.34259      0             -631.23538      114.59863      1279.2627    
    981000   9.3614779     -631.32038      0             -631.20543      739.30226      1282.9471    
    982000   8.2669523     -631.34701      0             -631.2455       2305.4026      1282.1224    
    983000   9.522655      -631.33958      0             -631.22264     -674.45929      1283.1453    
    984000   10.904096     -631.3241       0             -631.1902      -1853.1287      1283.441     
    985000   9.8346384     -631.35211      0             -631.23135      296.43446      1280.9216    
    986000   10.636017     -631.36555      0             -631.23494      966.19433      1281.2762    
    987000   10.484991     -631.33729      0             -631.20853     -1635.3291      1283.1759    
    988000   9.3660528     -631.34079      0             -631.22578     -1308.9311      1283.1886    
    989000   10.380907     -631.34178      0             -631.2143      -751.53764      1281.639     
    990000   9.7436361     -631.32606      0             -631.20641     -1897.571       1282.2109    
    991000   9.0292211     -631.34958      0             -631.23871      480.70766      1280.1518    
    992000   9.6598843     -631.33329      0             -631.21467     -898.24316      1282.9003    
    993000   10.473844     -631.35762      0             -631.229        398.76456      1284.0661    
    994000   9.1987688     -631.32644      0             -631.21348      2154.0055      1280.8011    
    995000   11.610082     -631.32836      0             -631.18579      2448.3204      1280.4895    
    996000   9.6268075     -631.34009      0             -631.22187      2270.4911      1279.6498    
    997000   10.26597      -631.31451      0             -631.18844      4491.7562      1276.7136    
    998000   10.394352     -631.34443      0             -631.21679      674.36146      1281.541     
    999000   9.830476      -631.33962      0             -631.21891     -1480.2855      1283.4442    
   1000000   9.6083748     -631.31458      0             -631.19659     -535.12493      1280.3099    
   1001000   10.478541     -631.35221      0             -631.22354     -762.31544      1281.6254    
   1002000   8.8796026     -631.31749      0             -631.20845      1926.778       1279.6311    
   1003000   9.6068087     -631.34891      0             -631.23094     -1515.601       1280.6178    
   1004000   10.05848      -631.34348      0             -631.21997      2919.3258      1280.3775    
   1005000   10.435201     -631.34097      0             -631.21282      564.7809       1281.6512    
   1006000   11.163715     -631.36001      0             -631.22293     -392.40344      1282.625     
   1007000   10.997585     -631.33227      0             -631.19722     -471.4262       1282.8072    
   1008000   10.739234     -631.35291      0             -631.22104     -359.51644      1280.5428    
   1009000   11.328274     -631.33333      0             -631.19422     -1197.9926      1282.0145    
   1010000   10.39147      -631.33783      0             -631.21022     -3582.4133      1285.8853    
   1011000   9.5165426     -631.34146      0             -631.2246      -110.9182       1283.1326    
   1012000   9.419477      -631.33324      0             -631.21757     -1827.9599      1284.2735    
   1013000   10.293551     -631.31826      0             -631.19186      269.995        1282.2426    
   1014000   9.4977296     -631.34292      0             -631.22629     -2125.1479      1282.2821    
   1015000   12.195324     -631.34549      0             -631.19574     -884.17614      1282.1103    
   1016000   10.01296      -631.34268      0             -631.21973     -779.98751      1282.7536    
   1017000   10.404395     -631.33991      0             -631.21214     -1848.7521      1284.6767    
   1018000   10.108499     -631.34913      0             -631.225        696.3053       1285.271     
   1019000   12.072943     -631.33785      0             -631.1896       52.569082      1282.033     
   1020000   11.175982     -631.34422      0             -631.20698     -389.49865      1279.9569    
   1021000   9.8686861     -631.337        0             -631.21582      2170.8454      1280.7803    
   1022000   10.538532     -631.33632      0             -631.2069       87.920906      1282.8253    
   1023000   9.8821015     -631.33874      0             -631.21739      810.00904      1282.3058    
   1024000   10.706172     -631.32524      0             -631.19377      1546.5019      1280.9097    
   1025000   10.114719     -631.34719      0             -631.22299      821.3343       1280.636     
   1026000   9.9803869     -631.33114      0             -631.20858     -98.791002      1280.4331    
   1027000   10.685814     -631.3365       0             -631.20528     -1198.6475      1284.215     
   1028000   9.6401639     -631.33228      0             -631.2139      -593.97855      1282.6133    
   1029000   10.399165     -631.30995      0             -631.18225     -1026.1704      1283.9871    
   1030000   8.9733702     -631.33532      0             -631.22513     -1056.6492      1284.656     
   1031000   10.533977     -631.35954      0             -631.23018      662.89416      1278.616     
   1032000   11.367605     -631.3428       0             -631.20321      1651.8906      1280.5256    
   1033000   9.0346832     -631.3466       0             -631.23566      1844.0273      1282.7299    
   1034000   11.061534     -631.31892      0             -631.18308      1967.5858      1278.7799    
   1035000   9.6910792     -631.33515      0             -631.21615      1391.638       1284.1531    
   1036000   9.4201786     -631.3517       0             -631.23602      617.28527      1282.2445    
   1037000   9.6916209     -631.33285      0             -631.21384     -2057.3418      1280.8829    
   1038000   9.3340302     -631.34958      0             -631.23496     -1344.3469      1281.6262    
   1039000   11.446292     -631.33046      0             -631.1899      -501.07873      1282.9527    
   1040000   9.5932289     -631.33394      0             -631.21613     -245.20278      1282.6978    
Loop time of 5.68655 on 1 procs for 80000 steps with 96 atoms

Performance: 1215.499 ns/day, 0.020 hours/ns, 14068.276 timesteps/s, 1.351 Matom-step/s
99.1% CPU use with 1 MPI tasks x no OpenMP threads

MPI task timing breakdown:
Section |  min time  |  avg time  |  max time  |%varavg| %total
---------------------------------------------------------------
Pair    | 5.0301     | 5.0301     | 5.0301     |   0.0 | 88.46
Bond    | 0.0026605  | 0.0026605  | 0.0026605  |   0.0 |  0.05
Neigh   | 0          | 0          | 0          |   0.0 |  0.00
Comm    | 0.17325    | 0.17325    | 0.17325    |   0.0 |  3.05
Output  | 0.010234   | 0.010234   | 0.010234   |   0.0 |  0.18
Modify  | 0.44583    | 0.44583    | 0.44583    |   0.0 |  7.84
Other   |            | 0.02444    |            |       |  0.43

Nlocal:             96 ave          96 max          96 min
Histogram: 1 0 0 0 0 0 0 0 0 0
Nghost:            518 ave         518 max         518 min
Histogram: 1 0 0 0 0 0 0 0 0 0
Neighs:              0 ave           0 max           0 min
Histogram: 1 0 0 0 0 0 0 0 0 0
FullNghs:         3246 ave        3246 max        3246 min
Histogram: 1 0 0 0 0 0 0 0 0 0

Total # of neighbors = 3246
Ave neighs/atom = 33.8125
Ave special neighs/atom = 0
Neighbor list builds = 0
Dangerous builds = 0


write_data amorphousSiO.data
System init for write_data ...


Total wall time: 0:01:24
