96
 Atoms. Timestep: 0
2 0 7.95642 4.74695
2 4.63304 0 11.358
2 0 4.63304 4.74695
2 7.95642 0 11.358
2 0 4.63304 8.47514
2 7.95642 0 1.8641
2 0 7.95642 8.47514
2 4.63304 0 1.8641
2 10.7421 8.43088 6.61105
2 4.15858 10.7421 0
2 1.84736 4.15858 6.61105
2 8.43088 1.84736 0
2 1.84736 8.43088 6.61105
2 8.43088 10.7421 0
2 10.7421 4.15858 6.61105
2 4.15858 1.84736 0
2 10.5201 6.29473 5.04003
2 6.29473 10.5201 11.6511
2 2.06934 6.29473 5.04003
2 6.29473 2.06934 11.6511
2 2.06934 6.29473 8.18207
2 6.29473 2.06934 1.57102
2 10.5201 6.29473 8.18207
2 6.29473 10.5201 1.57102
2 10.1594 8.65935 9.20274
2 3.93011 10.1594 2.59169
2 2.43004 3.93011 9.20274
2 8.65935 2.43004 2.59169
2 2.43004 8.65935 9.20274
2 8.65935 10.1594 2.59169
2 10.1594 3.93011 9.20274
2 3.93011 2.43004 2.59169
2 2.43004 3.93011 4.01936
2 8.65935 2.43004 10.6304
2 10.1594 8.65935 4.01936
2 3.93011 10.1594 10.6304
2 10.1594 3.93011 4.01936
2 3.93011 2.43004 10.6304
2 2.43004 8.65935 4.01936
2 8.65935 10.1594 10.6304
2 0 10.703 0
2 1.88643 0 6.61105
2 0 1.88643 0
2 10.703 0 6.61105
2 0 0 1.872
2 0 0 8.48305
2 0 0 11.3501
2 0 0 4.73905
2 11.2706 2.31295 2.18973
2 10.2765 11.2706 8.80078
2 1.31887 10.2765 2.18973
2 2.31295 1.31887 8.80078
2 1.31887 2.31295 2.18973
2 2.31295 11.2706 8.80078
2 11.2706 10.2765 2.18973
2 10.2765 1.31887 8.80078
2 1.31887 10.2765 11.0324
2 2.31295 1.31887 4.42131
2 11.2706 2.31295 11.0324
2 10.2765 11.2706 4.42131
2 11.2706 10.2765 11.0324
2 10.2765 1.31887 4.42131
2 1.31887 2.31295 11.0324
2 2.31295 11.2706 4.42131
1 11.0086 7.83654 8.10972
1 4.75292 11.0086 1.49867
1 1.5809 4.75292 8.10972
1 7.83654 1.5809 1.49867
1 1.5809 7.83654 8.10972
1 7.83654 11.0086 1.49867
1 11.0086 4.75292 8.10972
1 4.75292 1.5809 1.49867
1 1.5809 4.75292 5.11238
1 7.83654 1.5809 11.7234
1 11.0086 7.83654 5.11238
1 4.75292 11.0086 11.7234
1 11.0086 4.75292 5.11238
1 4.75292 1.5809 11.7234
1 1.5809 7.83654 5.11238
1 7.83654 11.0086 11.7234
1 10.1088 10.1088 3.30552
1 2.48067 10.1088 9.91657
1 2.48067 2.48067 3.30552
1 10.1088 2.48067 9.91657
1 2.48067 10.1088 3.30552
1 10.1088 10.1088 9.91657
1 10.1088 2.48067 3.30552
1 2.48067 2.48067 9.91657
1 0 1.60471 1.57853
1 10.9848 0 8.18958
1 0 10.9848 1.57853
1 1.60471 0 8.18958
1 0 10.9848 11.6436
1 1.60471 0 5.03252
1 0 1.60471 11.6436
1 10.9848 0 5.03252
96
 Atoms. Timestep: 2000
2 -0.373128 8.60461 5.26372
2 4.71276 12.7246 11.4903
2 12.0003 4.75262 5.70636
2 7.94925 0.570387 11.3574
2 0.904768 4.4459 8.63181
2 8.68986 0.178321 1.31214
2 0.30284 7.36179 8.56151
2 4.86938 0.293014 1.17973
2 11.7535 7.28709 6.95705
2 4.96411 10.7026 -0.252971
2 1.95496 4.41815 6.37611
2 8.24322 2.93528 13.0135
2 1.88781 8.39887 6.929
2 7.40206 12.2758 13.1933
2 10.0325 3.11882 6.78004
2 3.65946 1.39527 13.1378
2 10.0788 5.99108 5.47267
2 6.04722 10.6885 11.1938
2 1.52667 6.4095 5.29476
2 6.21605 2.2812 11.4347
2 2.64007 5.96509 7.90296
2 6.33489 2.31415 1.3083
2 11.5179 5.58834 8.87297
2 6.10292 11.7305 1.71361
2 10.3132 8.00761 9.34435
2 3.84958 10.7695 2.85193
2 2.04043 2.55622 8.44519
2 9.47139 2.46147 1.97478
2 2.13208 8.31307 9.67399
2 8.36426 10.0294 2.50033
2 11.5496 3.12133 9.47991
2 3.6165 3.03885 1.83527
2 1.39206 4.16034 4.16626
2 9.18173 2.59757 10.5343
2 9.90836 8.82847 4.95418
2 3.2387 10.7189 10.9627
2 10.7167 3.48205 4.58788
2 3.35421 1.45804 10.7136
2 2.09825 9.00285 4.54035
2 9.05645 10.7888 10.5841
2 0.325826 11.1498 0.4313
2 1.29695 0.745211 6.64084
2 -0.19314 1.41448 13.1918
2 10.0688 12.2764 5.47054
2 0.207782 0.501548 1.36131
2 12.0262 11.8418 8.54112
2 0.492467 11.8124 11.9082
2 11.9751 12.6471 3.01273
2 11.8762 2.46034 2.31307
2 10.1719 1.58894 6.6252
2 1.67532 11.9072 2.85406
2 2.02828 0.234669 8.68367
2 1.25493 3.26856 1.86787
2 1.38471 10.7024 8.31265
2 10.7841 9.33662 2.39217
2 10.8294 0.844569 8.59789
2 1.01451 10.0182 10.9486
2 2.16999 2.08291 4.75128
2 11.642 1.47978 11.285
2 10.1519 11.3846 3.34219
2 11.4157 9.16727 11.7842
2 10.1551 0.973012 3.783
2 1.19677 1.24587 11.0917
2 2.67504 11.7078 4.88579
1 11.5675 7.33295 8.61203
1 4.5648 11.4515 1.44372
1 2.22263 4.29054 7.87735
1 8.06249 1.86861 0.93351
1 2.023 7.40718 8.29997
1 8.07611 11.3948 1.47183
1 12.3419 4.39683 8.55291
1 4.45121 2.03823 0.920974
1 0.758099 4.92575 5.37603
1 7.86556 2.29245 11.4762
1 11.0308 7.54284 5.44161
1 4.53593 11.2102 11.8526
1 10.2776 4.338 5.81969
1 4.67588 1.34749 11.5767
1 1.3863 7.92109 5.49388
1 7.69467 11.8306 11.5193
1 9.57914 9.91675 3.72207
1 2.12556 9.92803 9.87548
1 2.34858 3.27052 3.12865
1 10.7665 1.95037 9.9708
1 2.39734 10.6234 3.99528
1 10.2435 9.36753 10.8827
1 10.4572 2.38565 3.24798
1 2.2036 1.46163 9.72287
1 0.197394 2.2398 1.20049
1 10.3823 0.11601 7.08023
1 0.318576 11.9539 2.14146
1 0.755753 12.2676 7.76921
1 12.6915 10.3118 12.3459
1 2.22052 0.434561 5.46115
1 0.012985 0.698207 11.8337
1 10.6416 -0.376089 4.00867
96
 Atoms. Timestep: 4000
2 12.7511 8.10892 5.14923
2 4.38174 0.273796 11.4335
2 0.105794 4.77366 5.01013
2 8.0569 0.111607 12.4026
2 11.9113 5.68045 9.22895
2 7.71492 11.1055 0.373194
2 -0.0367914 7.33963 9.26314
2 4.45713 0.0341104 0.690363
2 11.064 7.53648 6.3917
2 4.37444 10.9793 13.1101
2 1.68096 4.21835 6.40591
2 6.98739 4.42716 4.18398
2 1.3995 8.70702 6.93393
2 8.74456 8.90135 12.9704
2 11.154 5.35182 6.69533
2 4.20985 2.27797 13.3564
2 10.4697 6.00276 4.95496
2 6.24266 11.7401 11.8328
2 2.31481 6.76657 4.89971
2 6.842 1.37313 11.5095
2 1.49854 6.32137 7.84279
2 6.05691 2.06349 1.42441
2 10.4051 6.98121 8.95624
2 6.03807 11.6083 1.42349
2 10.6717 8.28701 10.9605
2 3.66408 10.4117 2.08088
2 3.34235 3.5897 8.34924
2 8.38863 2.1727 2.83653
2 1.51224 9.42641 9.29187
2 8.83108 9.18104 2.13783
2 11.179 3.49238 8.43661
2 3.40635 2.25531 2.49462
2 1.92784 3.96134 3.67817
2 9.80177 1.53007 10.2948
2 10.524 8.49246 3.56904
2 3.64273 10.8709 11.1205
2 11.052 3.62117 3.92464
2 4.34551 2.20475 10.4338
2 1.77766 9.39087 4.43958
2 9.51348 11.1443 11.8072
2 -0.00924403 11.0026 0.21757
2 2.58385 0.294392 6.68027
2 -0.170176 1.97738 0.0795844
2 10.8366 12.2884 6.10313
2 12.0626 12.7068 1.29154
2 0.496836 12.3107 7.5437
2 11.409 9.49215 9.46889
2 12.0807 11.5838 3.56684
2 10.7383 1.81906 1.69157
2 11.6717 10.3802 8.37927
2 1.13371 11.5368 3.03846
2 2.29555 1.27512 9.11092
2 0.5978 1.75938 2.31538
2 2.41472 11.6177 8.65986
2 11.1064 10.4418 1.78595
2 11.5495 0.813662 8.07117
2 0.691699 10.7718 11.0998
2 1.89229 0.769765 3.82355
2 12.2673 2.18094 10.3738
2 9.92659 10.8706 4.37627
2 11.3868 9.32839 12.7994
2 10.3328 0.672651 3.8331
2 8.88411 4.79587 7.50853
2 3.13926 11.5156 4.27083
1 11.5833 7.90602 9.56847
1 4.70402 11.2704 0.934846
1 2.17917 4.68209 7.84855
1 6.743 3.06707 2.85428
1 1.39827 8.10367 8.52329
1 8.32176 9.77053 0.740691
1 10.3544 5.16315 8.43646
1 4.22183 1.5927 1.15947
1 1.73705 4.88022 5.01701
1 8.68972 1.48491 11.7148
1 10.9656 7.68775 4.74905
1 4.57771 11.8362 11.8107
1 11.2677 4.63776 5.09648
1 4.87008 1.56207 12.0356
1 1.4908 8.11685 5.4825
1 7.66524 11.6917 12.4652
1 9.94599 9.86205 3.01125
1 2.2145 10.6539 9.99054
1 1.86769 2.46493 3.01457
1 11.13 1.98853 9.18716
1 2.40369 10.2672 3.27263
1 9.83925 9.46126 12.0544
1 9.89517 2.05767 3.20562
1 3.3517 2.32443 9.33591
1 12.3446 1.19793 1.4815
1 11.9233 12.1575 7.53944
1 12.5381 11.0553 1.96431
1 1.99361 0.0783189 8.18293
1 12.822 10.3047 12.2597
1 2.96487 -0.0259902 4.94961
1 0.0690905 2.38821 11.9952
1 10.7844 12.3033 4.35973
96
 Atoms. Timestep: 6000
2 0.276742 1.97072 6.42745
2 3.32256 0.960703 12.5374
2 1.53065 3.71891 6.35324
2 7.23978 11.2861 11.2738
2 10.8988 6.13326 8.0422
2 6.07076 9.38642 0.658185
2 0.589631 7.83683 7.73492
2 5.69325 11.9968 2.18452
2 8.05875 6.54884 6.68071
2 3.96297 10.1227 0.642559
2 3.6387 5.54855 7.25179
2 8.49398 5.92803 13.0463
2 3.08683 8.08132 6.80141
2 8.47252 8.76609 11.7275
2 11.6682 4.68165 6.31071
2 7.48447 1.62643 0.799785
2 9.10629 9.3779 6.53708
2 4.97175 10.4509 10.9882
2 2.56512 5.98618 5.31668
2 9.12844 3.78069 11.2036
2 2.5518 7.1677 8.9211
2 8.44196 0.919307 3.20844
2 9.21267 3.41939 6.59091
2 7.95393 7.30256 0.739133
2 10.5053 8.25129 9.35832
2 3.94936 10.3013 2.70204
2 2.90316 4.95035 10.0337
2 10.352 3.70287 0.896482
2 2.22422 9.42905 9.00956
2 8.12846 9.37821 1.92092
2 9.33958 4.00765 8.71552
2 6.21522 2.23588 3.3982
2 4.18188 4.0411 5.19129
2 9.02234 1.67084 11.3765
2 8.51397 8.63749 4.58128
2 2.62079 11.5028 10.8513
2 11.8048 3.02229 3.90238
2 2.55172 3.05092 11.6584
2 3.08826 8.91162 3.98615
2 7.73248 9.44433 9.77241
2 11.1989 11.0705 0.85067
2 2.37674 1.13782 6.81919
2 0.499515 1.81063 0.582912
2 10.3116 11.5706 6.29239
2 1.14195 0.220545 2.3471
2 11.4055 1.31325 8.06341
2 10.5798 9.36023 7.03975
2 11.0438 12.1368 3.78279
2 0.676569 3.09892 2.03725
2 11.0148 10.5899 8.07323
2 1.23688 9.86889 2.79302
2 1.59927 2.9079 8.79993
2 3.79973 2.84981 1.95882
2 1.25428 12.0133 8.65204
2 10.5427 9.81294 2.9917
2 9.65811 1.17628 9.08663
2 0.105079 10.4079 10.5434
2 3.40074 1.97955 4.22636
2 11.6838 2.53897 10.5035
2 8.82274 10.9412 3.8918
2 10.1067 10.5567 10.4474
2 10.1152 1.93165 4.07303
2 8.59864 5.29128 6.93908
2 2.50893 10.9428 4.97045
1 10.8868 7.8057 7.38457
1 5.18771 10.25 1.82708
1 3.59094 5.8213 8.78103
1 9.52375 4.59809 12.5432
1 2.07865 8.21291 7.92036
1 7.5707 9.06126 0.439525
1 10.311 4.74461 7.49204
1 6.91294 1.07693 2.31735
1 2.59834 4.71051 6.18434
1 7.84143 0.818666 11.8838
1 8.51535 7.96192 5.79525
1 3.73366 11.1348 12.0805
1 0.216807 3.31472 5.46016
1 3.28295 2.70742 0.412792
1 2.95782 7.48253 5.30174
1 6.3761 9.71145 10.8801
1 9.04556 9.49428 3.34364
1 1.58651 10.7066 9.84572
1 4.4322 3.25518 3.90701
1 9.71671 2.76853 10.0648
1 2.53721 10.3415 3.52249
1 9.31419 9.01768 10.1797
1 10.8524 3.00878 2.57756
1 1.84516 3.77173 10.1216
1 1.54853 1.69405 1.78149
1 10.3761 12.0946 8.03339
1 12.0237 10.8562 2.56032
1 1.02183 1.46112 8.17838
1 11.1512 10.8901 11.8592
1 3.14167 0.629347 5.46748
1 12.5945 1.85258 11.6441
1 9.58574 12.3847 4.79599
96
 Atoms. Timestep: 8000
2 0.685805 3.41831 5.66041
2 3.71854 2.89104 2.12488
2 0.931845 4.98312 4.13476
2 7.84566 1.08509 12.0228
2 10.8857 5.41013 8.3792
2 6.7961 8.38842 1.23209
2 0.842539 7.63993 7.93463
2 6.2829 8.597 2.85028
2 8.89167 4.93165 5.44483
2 4.12732 0.922792 11.5988
2 2.48916 2.9781 8.91807
2 5.23256 4.91721 1.52944
2 2.82296 8.25305 6.71035
2 9.24731 8.21357 11.2367
2 11.3168 3.60876 9.99855
2 6.38248 2.89974 1.46925
2 6.48099 6.91058 5.96056
2 6.4545 10.5978 10.2853
2 4.34219 7.99307 5.33236
2 7.55802 4.08651 11.9261
2 2.67111 5.78501 8.02155
2 7.09901 10.7587 4.9291
2 11.0028 6.03142 6.34716
2 7.973 6.2238 1.19789
2 9.96162 7.9426 9.12443
2 3.47145 10.8679 1.96163
2 2.75819 4.48847 10.24
2 8.58401 4.42915 2.11645
2 3.56961 10.0848 5.69982
2 9.22744 7.90142 2.54038
2 9.23835 4.01892 9.49288
2 6.81774 5.28178 4.85943
2 4.84523 5.53905 5.96377
2 6.20589 10.9454 2.07586
2 8.12674 7.46236 4.88842
2 4.08152 10.9482 8.88729
2 10.289 4.08868 3.76805
2 2.2174 5.07957 1.05997
2 3.42054 8.69229 3.38848
2 8.87805 10.4064 9.98242
2 3.07421 10.2977 10.9143
2 4.98914 11.8152 3.59772
2 10.7267 0.761903 11.4949
2 8.48922 11.7709 7.27128
2 10.3039 11.0095 2.92864
2 10.8936 1.36643 6.82604
2 8.80799 6.67207 7.02765
2 1.62338 9.27813 4.52943
2 9.8496 2.25629 2.03392
2 8.2839 1.51376 9.45159
2 1.19797 9.85701 2.08336
2 1.80104 2.53221 10.8983
2 4.35632 5.31966 3.48155
2 2.24741 0.753459 6.81811
2 10.8121 8.88661 4.27026
2 11.0186 1.77613 9.20282
2 2.38695 8.46657 9.46915
2 4.32809 3.4737 4.47391
2 1.66127 11.3508 9.47262
2 8.98478 10.0635 4.79511
2 11.4678 9.07429 10.2065
2 11.3869 4.59689 12.668
2 12.0153 3.53928 7.73774
2 2.12313 1.83383 4.91586
1 10.5027 6.77971 7.70308
1 3.92809 1.40836 1.33261
1 3.29582 4.48746 8.82437
1 6.82089 4.56444 1.53421
1 2.69356 7.55538 8.02135
1 8.58955 7.79893 0.968776
1 10.4452 3.99159 8.62927
1 6.29232 10.2815 3.59219
1 5.12623 7.14892 6.49428
1 6.73407 1.34519 1.56627
1 7.75343 5.92599 6.05892
1 4.64339 10.8977 10.4722
1 10.7708 4.85859 5.42425
1 3.6101 4.50796 2.06736
1 3.06691 8.69975 5.00754
1 7.76639 11.5479 10.4073
1 9.15327 8.30693 4.05643
1 3.39193 11.16 7.38653
1 5.19599 4.63483 4.7724
1 8.09953 4.66131 10.4959
1 2.94674 9.38886 1.86005
1 9.86726 9.22481 10.1095
1 10.0443 4.08237 2.19557
1 1.48549 4.02867 11.4185
1 10.0088 0.733833 1.48064
1 9.75009 1.36948 8.12831
1 0.495583 10.1994 3.69581
1 1.00052 2.02104 6.49984
1 1.78493 9.82727 10.0287
1 3.75615 1.69666 4.17885
1 0.734044 1.32267 10.2148
1 8.36341 11.5321 5.43021
96
 Atoms. Timestep: 10000
2 1.5959 3.52804 5.097
2 4.15195 2.05078 1.08606
2 11.2853 5.95274 3.96502
2 9.97695 0.698432 10.7053
2 9.78119 5.29125 8.55842
2 6.59522 8.88858 2.31255
2 12.0874 7.31202 6.62146
2 6.10696 10.5715 3.45088
2 6.95569 4.05827 6.30825
2 4.32986 1.34548 10.2803
2 11.5162 6.29069 8.99393
2 6.10474 3.79097 2.29437
2 11.1046 9.82815 6.18267
2 7.21292 7.36354 11.3539
2 8.43517 2.8762 9.90718
2 8.42594 1.98165 1.15968
2 7.23577 7.1871 5.93991
2 6.70592 9.16619 6.89075
2 5.08016 7.96602 5.52857
2 6.20839 5.62082 11.726
2 2.21865 8.0432 10.5317
2 8.10054 10.3307 4.99889
2 10.4096 4.90483 6.24982
2 7.28613 6.24155 2.42769
2 4.22902 4.61614 9.71746
2 4.34996 10.5243 12.4374
2 1.00374 5.1277 10.9754
2 8.84783 4.5283 2.00634
2 5.50698 1.35625 7.46218
2 8.98743 7.68806 2.79685
2 7.246 4.78756 9.22003
2 5.70977 5.67368 4.97396
2 2.42558 4.76963 5.09876
2 6.90264 1.26074 11.3299
2 9.15055 6.11836 4.7882
2 3.13506 2.47359 8.99024
2 9.76533 3.56226 4.14782
2 2.94724 4.36367 1.47528
2 4.26847 8.37412 3.28149
2 8.59968 8.90858 9.43186
2 3.56117 10.5568 9.69851
2 6.71883 1.0749 4.64536
2 11.3223 1.318 1.15096
2 9.28079 11.5662 6.73342
2 0.86375 10.9785 3.1609
2 0.8129 1.37264 6.92356
2 8.80716 6.26621 6.77468
2 2.30174 8.52836 4.9287
2 8.97434 11.3354 2.70882
2 10.7306 11.12 8.84893
2 3.09959 10.0234 2.59349
2 1.04988 2.95563 11.1827
2 4.77417 4.0464 3.75921
2 2.11759 2.83518 7.36729
2 11.2751 8.34217 3.41021
2 10.5343 2.57991 9.89232
2 2.60864 10.497 6.61664
2 4.16494 3.97431 6.91003
2 1.47378 11.023 11.5309
2 9.58795 8.46718 5.37397
2 6.92395 6.88217 8.46325
2 11.1207 3.79202 1.78866
2 9.66739 3.18009 8.05189
2 4.00526 1.89158 5.74289
1 10.579 6.43814 7.25001
1 5.23604 1.03145 11.5293
1 1.41484 6.79136 10.3092
1 7.39224 4.87855 1.64523
1 1.61101 9.22908 6.43648
1 7.65322 7.76175 1.70401
1 8.79772 4.17719 8.99455
1 7.70728 11.384 3.81489
1 6.07994 7.6351 7.05694
1 8.41079 1.37391 10.8605
1 7.59741 5.64937 5.48775
1 4.14754 0.91022 8.70147
1 11.0999 4.3787 4.7554
1 4.25647 3.72878 2.20763
1 3.86522 7.50038 4.69078
1 9.73116 10.1172 9.59596
1 10.1541 7.35157 4.0737
1 3.33281 4.15354 8.5124
1 4.18084 4.98273 5.20745
1 5.93187 4.91203 10.336
1 4.7397 9.79491 2.27596
1 7.49208 7.5422 9.8365
1 9.31029 3.00987 2.38555
1 1.43912 4.12841 12.3528
1 10.5764 0.63511 2.38427
1 10.4505 1.60187 7.84269
1 1.42633 9.33528 3.5379
1 2.2083 2.27127 5.77375
1 2.51788 9.77614 10.5766
1 5.58695 1.42935 5.69446
1 11.5074 1.4428 11.0199
1 9.03718 9.83392 6.18327
96
 Atoms. Timestep: 12000
2 1.62988 3.62686 4.68635
2 5.72772 2.84671 2.48576
2 10.5411 5.33107 3.71741
2 7.98538 11.728 9.35472
2 9.89415 4.69358 8.48047
2 8.71675 9.61388 1.7826
2 11.4071 6.77362 7.38216
2 5.79131 10.5751 4.06528
2 7.36794 6.4039 9.49053
2 4.60158 2.44698 10.9368
2 2.08665 5.8688 9.54502
2 4.79019 4.51268 1.33647
2 10.2222 8.13241 6.31254
2 9.0541 7.14666 10.8591
2 8.65708 2.81485 8.62594
2 10.6257 3.61332 11.5089
2 6.69303 7.2112 6.27116
2 5.63541 6.98383 8.67386
2 4.18406 7.50654 6.9537
2 5.96902 4.55499 10.5614
2 2.74519 8.11358 10.365
2 7.17462 1.16367 7.58729
2 10.3937 2.2604 4.76927
2 6.88513 6.86308 12.113
2 4.6556 4.66876 7.9678
2 5.01713 11.0626 1.68019
2 2.40605 5.11185 11.6305
2 7.80849 4.7165 11.9109
2 4.98391 1.94917 8.60848
2 9.42419 7.00482 2.04357
2 7.14706 4.29682 8.50536
2 6.925 4.65423 5.7183
2 4.53806 6.18504 5.27238
2 6.76984 2.40268 10.9376
2 9.18141 6.49389 5.41831
2 2.79472 3.24731 9.10661
2 9.14919 3.62034 2.79017
2 3.25379 3.03852 1.98398
2 4.32582 8.25391 3.94954
2 9.07699 9.17446 8.84114
2 2.77702 11.391 9.6083
2 6.05442 12.0676 5.7566
2 10.6229 10.3804 1.31271
2 10.0415 11.1609 5.57624
2 11.2725 10.0302 3.54861
2 1.18029 2.30547 6.6441
2 8.80366 6.53201 7.67155
2 2.21414 8.21506 5.40728
2 8.3018 10.9945 4.00749
2 9.15595 11.8516 7.74075
2 3.01644 9.52087 2.89551
2 1.33506 2.06081 11.9615
2 4.84679 3.89628 4.53247
2 2.38589 4.66869 7.17762
2 11.2489 7.98521 3.39073
2 9.95952 1.59929 10.4146
2 2.24351 8.89972 7.6647
2 5.56828 3.35421 6.41547
2 0.853939 10.4816 9.8382
2 8.91413 8.24156 4.00512
2 6.50976 9.60183 8.0593
2 1.17018 2.88106 2.52504
2 9.53401 3.17157 6.52096
2 3.59388 2.42044 6.06856
1 11.1319 6.11754 8.8245
1 5.85661 1.75243 0.969914
1 2.35357 6.7235 10.8815
1 6.31092 5.26011 12.4387
1 1.07549 8.06984 6.73616
1 8.25947 7.99028 12.0723
1 8.54721 4.21603 7.3558
1 7.10839 10.8107 5.05957
1 5.79338 8.08378 7.58555
1 8.72041 2.577 10.2929
1 7.99122 6.11961 6.29517
1 3.46967 2.16726 9.83747
1 10.7592 3.57192 3.54864
1 4.517 3.79106 2.87019
1 3.91105 7.42444 5.37298
1 8.00735 10.3324 8.18413
1 9.84793 6.76009 3.766
1 3.14385 4.79009 8.71223
1 4.97738 4.77238 5.94057
1 6.0469 5.11447 9.06677
1 4.62639 9.97471 2.83434
1 8.94751 7.46037 8.9681
1 9.2357 3.95905 1.05193
1 1.79578 3.64285 0.960771
1 9.7083 10.4295 2.82324
1 10.416 1.69881 6.5807
1 1.77452 8.97156 3.89186
1 2.23198 3.39071 6.23784
1 2.353 9.76413 9.2974
1 5.27097 1.89015 7.05302
1 11.1842 11.2919 11.3598
1 9.29548 9.34038 5.44138
96
 Atoms. Timestep: 14000
2 11.7482 4.3358 4.64076
2 6.33602 1.51242 2.44472
2 10.9318 6.53526 4.23062
2 7.66423 1.02657 8.92773
2 9.85875 5.31433 8.11962
2 8.8063 9.70622 2.63398
2 1.8407 6.22148 6.61938
2 5.80892 11.1446 4.4466
2 7.45918 7.51502 9.76968
2 4.31199 10.7116 10.8074
2 2.24429 5.04752 9.76305
2 5.13389 4.33505 12.5325
2 1.82374 8.6534 5.41765
2 8.7659 7.84509 11.934
2 8.54348 2.81985 10.0756
2 9.60248 3.44017 11.8235
2 8.40255 7.53056 7.34185
2 6.23299 7.7257 7.94152
2 6.17707 7.08057 5.55475
2 6.03601 6.38588 10.7187
2 1.81815 7.31317 10.2745
2 6.12261 1.86947 6.46494
2 8.80436 4.15195 4.34695
2 6.88622 6.84066 1.84965
2 6.21518 5.8765 3.86948
2 4.49078 10.1246 2.22442
2 0.914611 5.33193 11.8046
2 7.21897 5.03526 12.0208
2 4.66277 1.21759 8.12081
2 9.20845 7.489 3.22838
2 7.64881 5.33442 9.57023
2 7.34158 5.19405 5.931
2 4.65453 6.25683 2.28705
2 6.34027 0.919136 11.3489
2 9.77476 6.80254 6.02771
2 2.70258 1.85986 9.46119
2 9.28463 5.18034 2.54089
2 4.58902 1.26586 1.47745
2 5.2013 8.6456 3.93156
2 9.32271 8.6349 9.12997
2 2.75596 10.0801 8.8904
2 6.70666 2.65527 4.66599
2 9.88867 10.5999 0.892316
2 10.6067 10.3667 8.05148
2 11.2692 10.9723 3.46231
2 11.259 1.67771 6.24863
2 11.0004 7.56452 7.55261
2 3.99907 7.02689 5.52653
2 8.86673 1.26183 3.5587
2 8.90116 0.893804 6.83168
2 2.97808 10.07 4.61365
2 11.257 1.84353 11.3501
2 5.71198 3.68722 3.05924
2 11.1991 3.91803 7.44494
2 10.4925 9.19127 4.7369
2 9.10622 11.0366 10.4901
2 1.89224 8.6959 7.73014
2 3.67874 3.57503 7.91036
2 11.288 9.63017 10.0091
2 8.02909 8.14373 4.796
2 7.14711 9.96577 6.68551
2 10.9944 3.95531 2.16234
2 9.96974 2.5129 8.7035
2 2.66414 3.80347 5.67824
1 11.5626 5.66738 7.86788
1 4.93744 10.8051 12.2864
1 2.22523 6.0588 10.9556
1 5.86688 5.86102 12.152
1 2.60612 7.49393 6.67984
1 7.94825 8.24468 1.80778
1 9.14104 4.12592 9.01362
1 7.11914 1.30483 4.18377
1 7.06215 8.34408 6.50911
1 7.88046 1.31685 10.4319
1 8.74423 5.83925 6.75789
1 3.59217 11.4341 9.2114
1 10.3879 4.9906 3.621
1 5.30117 2.73968 1.84759
1 4.92538 6.94999 3.90962
1 7.36466 11.7526 7.13524
1 9.706 7.6836 4.68136
1 2.74825 3.57078 9.23783
1 6.7515 4.24314 4.26993
1 6.4965 6.54085 9.1792
1 4.48778 10.2195 3.87825
1 8.96455 7.60946 10.2992
1 8.54598 4.39045 1.29032
1 11.1984 3.62746 11.8859
1 9.7864 10.995 2.44092
1 10.2947 1.10406 7.46937
1 1.22609 9.56222 4.22365
1 1.08571 3.15769 5.94512
1 1.60087 8.86189 9.22689
1 4.70109 2.39533 6.99781
1 10.6903 10.9528 10.8891
1 9.91815 8.51684 7.69171
96
 Atoms. Timestep: 16000
2 0.927133 3.97475 4.68849
2 6.60804 1.6158 3.80259
2 10.7147 5.62465 4.03664
2 6.33948 1.38375 9.31372
2 8.03886 5.40687 6.76047
2 10.5283 8.72503 2.65753
2 1.75307 6.22243 7.71931
2 6.79017 10.2796 3.79683
2 7.09248 7.46606 9.97175
2 3.42001 0.811777 11.8677
2 11.0534 6.07138 8.66924
2 5.88494 4.00965 1.74534
2 3.1789 8.0879 5.92167
2 9.43175 7.72727 10.8485
2 8.75507 2.24021 9.85411
2 10.397 3.21157 11.8311
2 8.31509 9.29459 6.31435
2 4.69519 7.12847 8.83724
2 5.43653 9.1291 6.07159
2 5.75628 5.05185 10.9065
2 0.998523 7.75737 9.59956
2 4.96502 2.83683 7.46838
2 9.37259 3.86436 3.67044
2 7.38392 6.04114 12.0208
2 7.12053 7.18853 5.78951
2 4.98636 10.3005 1.83545
2 0.969046 5.41789 10.8407
2 8.25524 3.66055 11.8021
2 2.00663 2.30533 8.95308
2 9.87257 6.83862 2.07829
2 6.96451 5.47713 8.77373
2 8.14545 5.19609 4.82222
2 5.72568 2.82103 11.2293
2 6.49484 0.678875 11.7864
2 9.32998 7.07201 4.32735
2 2.08563 3.1824 12.0672
2 9.87066 5.45793 10.2123
2 5.26346 1.87744 1.84523
2 5.38127 7.98457 3.78375
2 9.16816 8.9036 8.41178
2 2.46445 10.8323 9.58442
2 8.44889 1.94722 4.60608
2 11.0201 10.568 1.03435
2 9.24334 10.8697 7.07532
2 1.09892 10.1988 3.85123
2 10.77 2.04381 6.39386
2 10.7199 7.90624 6.65075
2 4.59098 6.56966 6.37499
2 9.28552 10.8711 3.01164
2 7.79495 1.17163 7.21035
2 3.62576 9.45105 3.73074
2 0.742472 1.12767 11.1133
2 6.73354 3.82049 3.95298
2 10.6663 4.72164 6.67551
2 1.26338 7.8343 3.67031
2 9.13732 11.0613 10.9605
2 2.9176 8.36818 8.60611
2 3.53417 4.29771 9.67387
2 0.731374 9.95898 10.211
2 6.95332 9.40215 8.46252
2 6.01702 11.2733 7.36333
2 11.7003 3.00019 2.44263
2 8.6892 3.12374 7.53738
2 2.29421 3.10595 7.09553
1 11.3031 6.17047 7.15498
1 4.90875 11.4461 12.4683
1 10.8603 6.71867 10.2628
1 6.65183 4.1913 12.0532
1 3.22345 7.38608 7.38074
1 8.60359 6.84669 0.870974
1 7.60593 4.17592 8.29707
1 7.90255 11.5852 3.54912
1 6.64979 9.79436 6.8138
1 7.64133 1.09863 10.6278
1 8.48497 6.44109 5.64088
1 2.44387 1.08186 10.3906
1 11.0723 3.94488 3.45598
1 5.67196 2.9772 3.03794
1 5.61004 7.4449 5.40603
1 6.37114 1.99627 7.6911
1 10.7021 7.20235 3.56284
1 2.34333 4.49727 10.9749
1 8.26055 3.4787 4.87984
1 5.8471 6.13399 9.73439
1 5.18689 9.44512 3.20175
1 8.10263 8.88832 9.82568
1 9.31855 3.69817 10.5827
1 11.8996 2.48039 12.3242
1 10.7632 10.3226 2.84389
1 9.41612 1.42335 7.48943
1 2.2691 8.93579 4.28019
1 11.7991 3.37598 6.3102
1 2.11236 9.11809 9.5974
1 3.29088 3.43888 8.15423
1 10.8682 10.9538 11.1936
1 9.90326 9.26272 7.06909
96
 Atoms. Timestep: 18000
2 11.5703 3.71967 3.55759
2 7.23138 11.5778 3.44661
2 1.41063 6.6761 7.06116
2 6.49483 11.6919 9.3615
2 10.3461 6.49594 8.34151
2 10.4106 8.33918 2.28808
2 2.1963 5.82183 8.67953
2 5.65191 10.0415 4.47562
2 7.45553 8.01318 9.17724
2 4.08376 0.88664 11.7031
2 9.71816 4.62115 6.90106
2 4.52312 1.56227 4.11631
2 2.1441 8.71419 6.83995
2 10.6999 5.84815 1.57663
2 8.73796 1.91912 9.54623
2 10.6491 2.73581 10.7675
2 8.49753 10.7871 5.44296
2 4.42863 7.43758 8.73141
2 6.15343 8.27937 5.81978
2 6.62891 6.20538 10.2288
2 11.534 8.02385 10.5778
2 4.82502 2.10465 7.7157
2 9.46537 4.29087 2.68458
2 8.45408 6.32318 1.3885
2 5.63117 5.85201 5.15034
2 4.27127 10.4331 2.09727
2 1.93228 5.61718 11.248
2 9.10685 4.76574 11.1153
2 2.78794 1.80118 8.9855
2 9.24561 6.29384 3.60693
2 6.91662 5.86044 7.94664
2 7.36362 4.14222 3.49145
2 9.12092 6.96942 10.4646
2 6.06084 10.3062 11.5168
2 7.88731 6.24205 5.2196
2 2.74329 3.58322 11.308
2 8.74642 2.50632 0.891358
2 5.25889 0.862573 1.78885
2 4.58444 7.98197 4.28928
2 9.4606 10.5126 8.56188
2 2.51711 10.5705 10.0293
2 9.00579 1.91041 3.33899
2 10.2535 10.4523 1.10881
2 9.14856 1.15957 6.81352
2 11.9103 9.24424 3.64065
2 1.00038 1.22381 4.58392
2 9.57679 9.0235 6.98771
2 3.87246 6.96079 6.79315
2 10.257 11.4139 3.30002
2 6.99842 2.17272 8.18309
2 3.11048 9.56965 4.72349
2 1.76478 1.8276 11.0477
2 6.82896 2.44168 2.68692
2 11.8528 4.37755 5.93921
2 9.95039 7.70604 6.65917
2 8.82086 11.2135 10.734
2 2.11273 7.90015 9.38075
2 3.52995 4.16244 8.64825
2 11.1943 10.2338 10.3047
2 7.49632 9.28791 7.39954
2 6.10326 11.2921 6.79257
2 11.5719 3.36059 1.17797
2 8.66929 3.97919 7.64004
2 2.39704 3.37314 6.22153
1 11.296 5.62795 6.86211
1 4.75084 11.0264 12.5448
1 11.8939 6.5446 11.8144
1 7.84306 5.9698 11.644
1 2.61789 7.50659 7.92009
1 9.66839 6.96317 2.39796
1 10.1319 7.68539 9.53336
1 8.85771 11.6981 3.97245
1 6.9984 9.90643 5.80154
1 7.1908 10.8981 10.5849
1 6.88328 5.11691 4.7528
1 3.05058 1.15482 10.38
1 10.9307 4.33669 2.14431
1 5.93173 1.1918 3.05011
1 5.03686 7.23449 5.60436
1 5.89078 0.882861 8.11627
1 9.39755 6.41646 5.40074
1 2.74696 4.80558 10.1054
1 8.32516 3.17355 2.51047
1 6.13647 6.8339 8.95877
1 4.43797 9.4784 3.66761
1 8.31364 9.46325 8.89732
1 9.13587 3.03373 10.8971
1 0.831844 3.24642 11.4403
1 10.5416 10.0649 2.59406
1 8.78855 2.36848 7.84283
1 1.52721 9.5305 5.12036
1 1.23794 2.95332 4.90161
1 1.45148 9.32121 10.26
1 3.29518 2.93159 7.80039
1 10.0537 10.9625 11.3558
1 9.72937 10.7864 6.96091
96
 Atoms. Timestep: 20000
2 1.35218 2.90017 4.21771
2 7.69175 0.940515 2.96117
2 2.08 5.45309 7.87614
2 7.15685 11.3188 8.63762
2 11.0506 5.02558 8.31185
2 9.88064 8.67075 2.12268
2 4.22592 4.29597 11.8373
2 4.45426 10.9599 4.02032
2 7.59947 8.84928 8.17651
2 4.56315 11.9919 11.7693
2 1.3807 4.48922 9.81713
2 5.0478 0.39444 3.53408
2 0.880581 11.3778 5.34258
2 11.0712 6.69017 0.572325
2 8.53252 2.86825 11.0586
2 11.389 12.5357 11.6755
2 9.27135 1.0805 5.36167
2 4.61227 6.93096 8.42342
2 4.26665 9.11566 5.87349
2 6.81675 7.37875 9.72857
2 0.971416 8.21177 11.2075
2 5.05323 1.9046 8.28283
2 11.7766 4.44692 2.52669
2 8.26794 6.96531 12.9598
2 4.70967 6.28521 4.63982
2 4.67288 9.87866 1.13428
2 1.28794 5.30373 11.9245
2 7.07216 4.86622 12.183
2 3.21439 0.879878 9.54481
2 9.58357 5.91739 2.97496
2 8.2733 6.74285 8.135
2 6.81893 7.04599 6.25291
2 8.95548 6.33337 10.6793
2 6.74769 10.847 11.994
2 7.11134 5.29819 4.20681
2 1.6487 2.57709 11.6512
2 7.5733 3.15778 1.70018
2 6.21062 0.438574 1.34363
2 3.58197 8.4952 3.7509
2 8.59795 11.3925 6.67934
2 2.69015 10.1308 9.64091
2 8.99379 2.82211 3.31594
2 10.0665 10.555 12.4382
2 9.41592 1.31006 7.81811
2 11.6701 10.9894 2.42531
2 11.3665 1.67762 6.22955
2 11.6223 11.4905 6.48166
2 2.82844 7.32007 6.43084
2 9.24306 11.4904 2.58956
2 7.63858 2.12364 8.5264
2 2.66231 10.2809 3.46157
2 2.13063 11.5261 11.6118
2 6.12025 2.81486 3.30894
2 11.9784 3.33272 7.1271
2 10.6572 3.89788 5.16054
2 8.93188 11.0408 10.511
2 2.19192 7.81138 9.25317
2 3.55696 3.52316 10.0682
2 11.5538 10.2515 9.97571
2 6.21415 10.1129 6.52673
2 5.49898 12.0142 7.05025
2 0.997418 1.89458 1.43688
2 9.04504 3.89968 9.11083
2 2.58693 2.78193 7.69759
1 0.855676 4.41431 8.22813
1 5.33535 11.1901 0.437467
1 12.1228 6.84278 11.5902
1 7.407 6.51771 11.5225
1 2.89333 6.85836 8.08057
1 9.74655 6.76712 1.34575
1 9.2592 5.71033 8.97466
1 9.06173 1.02339 3.58119
1 5.04004 10.7619 5.78913
1 7.269 11.1967 10.4331
1 6.20583 5.9111 5.25872
1 3.44097 11.3518 10.5939
1 1.38785 3.12674 2.53767
1 6.14109 1.28161 2.6647
1 3.83514 7.75167 5.21699
1 6.6234 1.30297 7.73288
1 10.158 4.42914 3.62907
1 2.50692 4.22245 11.0005
1 7.04834 3.90932 3.06617
1 6.36462 7.42501 8.04787
1 4.0527 9.75539 2.67612
1 7.75424 10.3708 7.39381
1 7.74152 3.14037 12.2782
1 0.919901 0.84481 12.3996
1 10.2523 10.426 1.76597
1 8.95101 2.20352 9.33686
1 1.1895 11.2971 3.52891
1 11.963 2.93416 5.37636
1 1.37534 9.16367 9.87672
1 3.69231 2.24052 8.84878
1 10.554 11.2446 10.8711
1 9.9972 0.340804 6.67772
96
 Atoms. Timestep: 22000
2 1.29477 3.69138 4.56272
2 7.25941 1.81628 3.34097
2 1.16347 5.94769 8.57014
2 8.25634 9.08383 8.99291
2 9.97748 4.74401 8.23118
2 9.74058 9.02009 2.24129
2 3.352 3.61156 10.8024
2 5.73567 9.89938 4.47552
2 5.64402 8.88631 7.76958
2 4.24227 11.2775 11.8996
2 1.01095 4.05772 10.3818
2 4.75172 11.345 2.62705
2 1.59835 11.6738 5.25336
2 11.0092 7.30863 0.898036
2 8.68805 2.4811 10.4439
2 11.1173 0.979171 12.0839
2 8.96528 1.00047 4.60328
2 5.35735 6.00385 9.05325
2 4.35704 9.28624 6.17649
2 7.27298 7.29222 9.61688
2 1.23386 8.36244 11.4286
2 4.56472 2.83159 7.93779
2 11.8934 3.83157 2.29942
2 8.59948 7.5945 0.830064
2 4.69759 6.56945 5.66423
2 5.44625 9.66282 1.65945
2 1.40543 5.90186 0.801638
2 7.74576 5.47479 10.9541
2 3.85449 1.43488 9.33211
2 10.0922 5.44818 2.10423
2 6.99284 5.31729 7.15535
2 6.49808 7.24953 6.7435
2 8.93579 6.82017 7.52063
2 6.5963 9.87562 11.1723
2 6.80811 5.36847 3.96179
2 1.80021 2.91636 1.19841
2 7.04931 4.02036 0.981543
2 6.14535 11.929 1.17291
2 3.72987 8.53416 4.08514
2 9.37142 10.2469 6.34412
2 2.97438 10.1546 10.2298
2 10.0255 2.59051 2.62448
2 11.0618 10.2281 0.808534
2 9.57701 1.52901 7.90754
2 11.4851 10.9483 3.53733
2 10.5598 2.13521 5.8989
2 11.8566 0.526581 6.04303
2 2.60389 7.49944 6.30148
2 9.36555 11.3939 2.31686
2 6.77496 1.93147 8.06431
2 2.79772 10.0521 3.23916
2 2.22142 0.630037 11.7412
2 5.25198 2.95062 2.89627
2 0.614983 3.92728 6.95295
2 10.2729 3.68779 4.45198
2 9.10147 10.9514 10.691
2 2.02614 8.00647 9.07406
2 4.7746 4.39449 9.43376
2 11.5849 9.88685 10.096
2 7.30996 9.96527 7.05274
2 4.98017 11.2619 6.98015
2 1.86832 1.21552 2.73451
2 8.07653 3.87392 8.41674
2 2.33817 3.71522 8.32818
1 11.868 4.50514 8.53083
1 5.72656 10.6057 12.3669
1 0.941514 7.29928 12.406
1 7.76232 6.93288 11.1336
1 1.77505 7.21234 7.67354
1 9.78692 7.21291 2.14592
1 8.49507 5.19928 7.54827
1 8.92206 1.71942 3.14284
1 5.88737 10.2477 6.25539
1 7.89127 9.9432 10.2285
1 6.31533 5.74435 5.78066
1 3.39558 11.8843 10.4686
1 1.86351 3.04525 3.15746
1 5.84158 1.3151 2.81149
1 3.91884 7.91461 5.43221
1 5.23554 1.25224 7.81944
1 10.4523 4.02384 2.83616
1 1.8897 4.15214 11.9435
1 6.45389 4.38417 2.53856
1 6.21949 7.42869 8.3563
1 4.56464 9.57953 3.24022
1 8.71726 8.6813 7.34138
1 7.86591 3.87652 11.2274
1 1.19562 1.36758 0.740863
1 10.5409 10.5591 2.30483
1 8.32042 2.08408 8.81495
1 1.64324 11.3009 3.78342
1 11.5033 3.33801 5.57241
1 1.60448 9.08651 10.0853
1 3.59227 3.21945 9.1746
1 10.6952 11.0231 11.3751
1 10.0359 0.735732 6.13309
96
 Atoms. Timestep: 24000
2 0.830157 2.3905 3.82975
2 7.98389 0.834879 3.35743
2 1.14559 6.19829 8.18785
2 7.56811 11.099 10.0175