LAMMPS data file via write_data, version 2 Aug 2023, timestep = 100000, units = metal

96 atoms
2 atom types
0 bonds
1 bond types

0.5506377645089708 12.038824904490731 xlo xhi
0.5506377645089708 12.038824904490731 ylo yhi
0.57830785876427 12.643787806235768 zlo zhi

Masses

1 28.0855
2 15.9994

Atoms # full

53 1 2 -0.55 3.3797614860810854 2.6423290711175933 1.4632997997930568 0 0 0
28 1 2 -0.55 1.1755579884584624 0.6487795752832151 3.69459559589552 0 0 0
83 1 1 1.1 3.801684970929749 2.74639957631959 3.050478082008205 0 0 0
3 1 2 -0.55 6.8784373227866045 1.6519936053528492 1.9720557645661738 -1 0 0
12 1 2 -0.55 8.27259225208893 2.9981290870149313 1.4231102055278817 0 0 0
68 1 1 1.1 6.698897886619148 3.296250981994535 1.9189699635615198 0 0 0
59 1 2 -0.55 9.54037374692744 0.7245989318822375 12.56680025183097 0 0 0
63 1 2 -0.55 1.9291349006256997 4.763925517200016 0.980589179991018 0 0 1
73 1 1 1.1 0.6598938762273999 5.1474750073007725 1.9990115903582775 0 0 0
19 1 2 -0.55 0.6419623958975695 3.5431780453289874 2.761290273108145 0 0 0
33 1 2 -0.55 5.2184686321712705 3.49911830583296 2.684554285509998 0 0 0
55 1 2 -0.55 8.2621520278107 6.248116765196287 2.2668273147266813 0 0 0
36 1 2 -0.55 7.00991715872766 4.256204358043643 3.2289999690967663 0 0 1
8 1 2 -0.55 6.453852658509536 4.100844396872741 12.566525082862139 0 0 -1
4 1 2 -0.55 10.682165545207962 5.676239764243649 1.376892340917406 0 0 1
17 1 2 -0.55 11.623015371244023 5.5385622600415445 3.5201538716486165 0 0 0
41 1 2 -0.55 1.307259143774218 6.7323317774977225 1.9603245274916294 0 0 0
93 1 1 1.1 0.8739147471441701 8.323593849838774 1.7230512533149567 0 0 1
30 1 2 -0.55 9.185443407771466 7.963707282672155 2.7128207152127213 0 0 0
70 1 1 1.1 8.495189924567779 9.306966449900557 3.3228758615561618 0 0 0
40 1 2 -0.55 10.757941945525989 8.083036473633502 1.4901365725967 0 0 1
91 1 1 1.1 9.556165362459588 6.910301882758831 1.4021192805272933 -1 0 0
48 1 2 -0.55 1.1523602845278371 9.354935317373528 2.976518574656136 0 -1 0
96 1 1 1.1 7.447054406865493 11.913961116507192 2.889523412311458 0 -1 0
16 1 2 -0.55 8.242270418108436 10.585173513124097 2.2160348911081122 0 -1 0
78 1 1 1.1 8.945028696580156 10.721068650595761 0.718843625364535 0 -1 1
45 1 2 -0.55 2.341445160048444 3.0294701150741252 3.760027360300482 0 0 0
94 1 1 1.1 0.7928795579201354 2.3528550644903543 4.07416976773597 0 0 0
42 1 2 -0.55 1.2789146811542866 2.1829664869672456 5.697296738749285 0 0 0
58 1 2 -0.55 4.405148928394506 1.6097189346694238 4.060498714801421 0 0 0
60 1 2 -0.55 8.594188998275254 0.843401545703419 3.97480335380128 0 1 0
64 1 2 -0.55 10.845631076651443 1.4016939433830555 4.086561287187857 -1 1 0
24 1 2 -0.55 9.366915255627607 0.7666559719558472 6.3283262742614586 0 1 0
11 1 2 -0.55 1.595633682052499 6.271985494657175 6.643382856638387 0 0 0
76 1 1 1.1 7.751446969138828 5.612621385073855 3.7006891620742257 0 0 1
15 1 2 -0.55 9.056879213687214 4.967340415262252 4.430753444645505 0 0 0
46 1 2 -0.55 11.329180199163886 3.534007084344796 4.880161397086479 -1 0 0
77 1 1 1.1 10.665411937908015 5.030250323236003 4.710490405880536 0 0 0
66 1 1 1.1 6.396582328831711 8.018195222493938 5.3085697230459665 0 0 0
51 1 2 -0.55 4.750095477400235 8.389554549024268 5.435524404395527 0 0 0
10 1 2 -0.55 6.750328514049149 6.539511605431804 4.6218735923219 0 0 0
26 1 2 -0.55 7.154848654699233 9.008377796218198 4.231955968575257 0 0 0
9 1 2 -0.55 10.746104815240592 6.270331879701062 5.74895720273702 0 0 0
87 1 1 1.1 1.8825233322303225 10.566657684307703 3.8134771947666457 0 -1 0
13 1 2 -0.55 2.0952873319959697 9.95796605960064 5.449855090151152 0 0 0
69 1 1 1.1 0.6696915923318515 10.007559306127593 6.405038760399866 0 0 0
18 1 2 -0.55 3.4513525618187106 10.844437923403351 3.4561324032839935 0 0 1
85 1 1 1.1 4.733991841239694 11.524526672997311 4.222191489229711 0 0 0
6 1 2 -0.55 6.191793998174808 11.196947548218326 3.6344351252824985 0 -1 0
79 1 1 1.1 3.6400447693035587 9.43951169460416 6.119109191695112 0 0 0
39 1 2 -0.55 4.4348346720238325 10.792727629200343 5.649652002213208 0 0 0
49 1 2 -0.55 9.486804465741464 10.207178168451819 4.30418777351128 0 -1 0
81 1 1 1.1 9.906652416476167 11.759831593195038 4.859780152583295 0 0 0
35 1 2 -0.55 11.149670709218942 10.694565012232168 5.307229980842024 0 0 0
92 1 1 1.1 1.2111431038868572 2.7136659698180563 7.260834495599187 0 0 0
54 1 2 -0.55 1.2425849910722098 1.453903220452443 8.309109531709609 0 1 0
56 1 2 -0.55 8.007350488650307 1.7140597663474304 8.39957850240073 0 0 0
84 1 1 1.1 7.964819309221379 3.002148616389872 9.42039781898277 0 0 0
88 1 1 1.1 2.7637359089578646 5.390534700620409 7.323105014631163 0 0 0
52 1 2 -0.55 2.3915893243702855 3.8222626716855674 7.5460440081538245 0 0 0
22 1 2 -0.55 8.99925203722081 4.149493883841438 8.832846072738224 0 0 0
5 1 2 -0.55 11.295857180201441 3.527178196712511 7.522205157464014 -1 0 0
71 1 1 1.1 10.566535940970308 4.552114147743696 8.562821445303602 0 0 0
62 1 2 -0.55 10.929921417809798 6.092927603434718 8.13080591548168 0 -1 -1
7 1 2 -0.55 11.60358351337203 8.575977063597335 6.97465618390018 -1 0 0
67 1 1 1.1 3.192446563237371 7.982443592736265 8.846043982379328 0 0 0
27 1 2 -0.55 3.381765741331255 6.432325042695087 8.39709638374434 0 0 0
1 1 2 -0.55 7.10009682640577 8.078133465131593 6.811672015452392 -1 0 0
75 1 1 1.1 7.7980608974077095 8.943300054066562 8.009744424719749 0 0 0
23 1 2 -0.55 8.441002491841546 8.222764013045943 9.332398994934291 0 0 0
65 1 1 1.1 11.627791785610913 6.942246073417409 6.917014478147973 0 0 0
29 1 2 -0.55 0.9346498034878575 11.044351688549654 7.625800611306805 0 0 0
37 1 2 -0.55 3.472279976969737 9.135293172317478 7.724252281529186 0 0 -2
90 1 1 1.1 8.858392425300611 11.891022352046974 7.847225649698795 0 -1 0
44 1 2 -0.55 7.887126968320282 10.5698647767184 7.858945970543866 0 -1 0
82 1 1 1.1 11.813188355316441 11.717455129006673 9.033346542219615 -1 0 0
50 1 2 -0.55 10.194185581746218 11.489960525566094 8.708118237147058 0 0 0
43 1 2 -0.55 1.7535095331837325 2.800325286614198 11.401336369978864 0 0 -1
34 1 2 -0.55 8.375514830720626 2.309539467303849 10.86996139818443 0 0 0
74 1 1 1.1 9.155950479231816 2.286332731973637 12.30919965997844 0 0 0
57 1 2 -0.55 11.349727602908484 1.5568902179062412 9.93785762198647 -1 1 0
20 1 2 -0.55 10.596696570203566 2.936508142996032 11.977841104739468 0 0 0
95 1 1 1.1 11.733043991754467 2.8656041020187217 10.830297676934183 -1 0 0
89 1 1 1.1 2.8270274727232314 3.588888929313246 12.321274498128854 0 0 -1
32 1 2 -0.55 4.038075325319733 4.064995213311785 11.330503388041471 0 0 -1
72 1 1 1.1 5.651668558004903 4.123024002772038 11.147114853429265 0 0 -1
38 1 2 -0.55 6.509883538625579 3.6718130606171657 9.819981337021847 0 0 0
31 1 2 -0.55 11.408747417460965 4.155647153971254 9.896329246351396 0 0 0
21 1 2 -0.55 2.1859760314161214 8.29684138295021 10.089470434522333 0 0 0
61 1 2 -0.55 1.2731700401864323 9.02103191236565 12.347577482299645 1 0 0
86 1 1 1.1 0.9179598246614777 9.131050934493363 10.740876191345091 1 0 0
14 1 2 -0.55 9.12136461144894 7.250087085261264 11.906718857257445 0 0 -1
80 1 1 1.1 9.314056559148629 8.385772500240922 10.723059502473255 0 0 0
25 1 2 -0.55 10.938754521366182 8.467743072492555 10.424459041027024 0 0 0
47 1 2 -0.55 0.8893800132326191 10.683248956907406 10.192534401901227 0 -1 0
2 1 2 -0.55 8.765513097109558 9.708318861457183 11.524571179660292 0 -1 0

Velocities

53 1.3542699216289782 0.1299359178309745 -0.03387110416250019
28 1.3015626378859497 -0.09375566864090897 0.21556690600659287
83 0.9575795300646955 0.39269923890131775 0.37435732312738956
3 0.08012250018830028 0.5188115438977382 1.5774199143048697
12 0.47631580220222214 -0.3733683445981008 1.123204801402837
68 0.7814246677563745 0.02329598369683448 -1.9266929026804247
59 1.4102216137601629 0.49873146836410676 -1.382865572025013
63 -0.23485670014964785 0.418525546084728 1.476624294084508
73 -0.15966812013303666 0.07124449075997855 -0.6624808707335339
19 1.8396174112360544 -0.32035744420338225 0.7542041566120864
33 -1.3975027739863424 -1.5373647343365513 -0.8829938508471722
55 1.255208873932696 2.0330296305550855 0.5274955933537425
36 0.06493479992691968 1.6635777740303266 -1.1833317384972875
8 0.09174869726258418 0.9118875668332235 -1.514696176278752
4 -0.43950899532908444 0.49939099186745173 0.6460665205810979
17 -0.9812230506636469 1.547735104070154 1.3308427877771385
41 0.10996851318661606 1.2640521015165445 -0.14481464728555007
93 0.5705731861523712 -0.06606855161485484 0.28300167141410193
30 -1.0118538642060375 0.08047771661071339 0.22543428503614807
70 0.31308411384396684 0.13736262937287325 -1.0709550375759782
40 -0.631786806037983 -0.5092362385170954 1.2083599513516514
91 -0.6654958237689712 -1.5610252380033527 1.1324280690833368
48 -0.3933409686749836 -0.37729486521282213 -0.632258175320282
96 0.15557982683761207 0.8673429758585267 -0.5079045625332973
16 1.2367996809646549 0.4217734785897349 -1.2683848588595832
78 0.1152766735743195 0.297168012587112 0.5047335320150603
45 -0.39792565861651563 -1.0625306612188707 -0.10666919584760498
94 0.3808641761620361 0.5414300650703526 -2.2153108233590015
42 -1.754761820733376 0.4291635479843939 2.3629731659308932
58 -0.4714459952673105 -0.8438699017796494 0.7645933431198348
60 -0.49151430856852607 -0.5209853856477077 -1.4903097114346662
64 0.2905646787732296 -0.40147950071831046 0.3170280603632571
24 0.09012532978780499 -0.20122362639399968 -0.12277071065181612
11 -0.29237057035494907 -0.6582096005081209 1.0056826718321945
76 -1.5905226231183098 0.5428646625270303 0.27492392907083585
15 -1.2046346743162155 -0.2090981762312782 1.2612037734744084
46 -0.37727329096564843 -1.7527191265694446 -0.6707435424671476
77 0.6897808500378912 0.37654475665623593 1.2328445722907773
66 -0.2857235216348246 0.5454870306449884 -0.5041988936286986
51 -0.4737434178618737 0.6470628585559679 0.13419136683999655
10 -1.0564720670001622 0.8508360087205822 0.44794001112714665
26 1.0134489491907832 -0.08002491473775865 0.384286067235956
9 0.15093346223409398 -0.25838597547266756 0.7080511824839975
87 -0.0829450954317679 -0.6832533041301897 0.056290451443730134
13 -0.5115938710269692 1.1113652570569839 -0.14915157225557282
69 0.8424612591519579 0.05261530488689437 -1.2224861704158985
18 0.11359427941042015 -1.3358337682370043 0.0062871783041299
85 -0.5898043282586346 -0.5756688157108318 0.4229977567849264
6 0.28355465653040524 0.1588006391069356 -0.10571294547992259
79 -0.15851150953756368 0.6114709657760381 -0.5266752867659039
39 -0.45108463683980965 -1.4970272852719342 0.1678475941817352
49 -0.8317018617581239 0.6491302627405834 0.8747800875675108
81 -0.11072978795888266 -0.6245498406762042 1.2352575990882098
35 -1.5446776123473065 -0.10621669583471603 -1.1521540976166005
92 -0.19377844481492293 0.4155182298296232 0.055362046123745824
54 0.5543164666429631 -0.9968128082120964 1.0343801035244884
56 -0.517803277475722 0.5614192489196123 -1.4153190506052926
84 0.9839623118923397 -0.28613309377975965 -0.1180212203638724
88 -0.21180944114830155 -0.05769013048622754 -0.5684971555042505
52 0.5598600156113966 1.6788314893116247 -0.018127953843660033
22 2.1101697660400465 1.3061541101328784 0.7982692144814306
5 0.8428766132951464 -0.8719594154741314 0.007678012112814477
71 -0.9051227697384882 -0.24288309049999857 0.3075071231734582
62 -0.2899904353333863 -1.2917305656993388 0.17284316492237173
7 -2.3791574503004056 -0.8348618497206215 -0.6008583572807074
67 -0.013941868733460563 -0.02239517094446445 1.7662032582640388
27 1.7036211497887344 0.059441304275428805 -0.5269452492092587
1 1.8743881340446975 -0.2823184087648594 0.8619891792956229
75 0.7515893421050036 -0.09901957518594974 1.0365831083738761
23 0.5977975669328766 0.4689852849443396 1.132085656793282
65 1.5575081601570853 1.2474003570799348 -1.5514759704630283
29 0.15079854225800052 -0.14827779269030483 -0.9554534884904833
37 0.2081788180762503 -0.027202842886572647 0.8935923218013405
90 -0.7691765832594638 -1.241718929504993 -0.49233437542591557
44 -0.4009577882886411 -0.7793736146506763 -0.12202519546910201
82 -0.7127939506703466 -0.4156697499219003 0.03920282628171035
50 2.313394741971658 1.133457331304053 -0.9850987660865916
43 -0.12560068179603553 -2.830766096512409 1.027737733380182
34 -0.25611117139733164 0.03635121165265282 0.6057311295599432
74 -0.539550428732401 0.03351098594648983 0.6204088213368747
57 -0.002467398703880671 -0.6760092641306625 0.17226560939308133
20 -0.24216264892040706 0.5473767996253953 -0.2269760926173403
95 -0.2862178223254391 -0.34380798982040695 -0.5716625491115519
89 -0.17006910458122504 0.4035363747220647 -0.28050516230182126
32 0.10741532251479413 0.957681884399527 -2.017234458936389
72 -0.9583852510208757 -0.10308588233963771 -0.4625289070894143
38 0.22084889860106025 -1.3285205008191237 -0.8134869179501917
31 -0.7517921268272866 -0.5123258188462164 -0.7808674919935003
21 0.431219362898414 -1.1831806008692067 -0.3834224077466574
61 0.9896047243494767 1.48395838274151 -1.1055046140045097
86 0.4090489607452263 0.11841457102248844 -0.03765624194385324
14 -0.09219859976009738 1.0439828853442112 0.125600965717659
80 -0.42412193159856176 -0.6060856710597259 1.4612729116946666
25 -1.615907204688432 -1.5610116282851438 -0.43490489543477606
47 -2.4785478214272594 1.1992289196567891 0.45145947868731956
2 0.8355785697706681 1.593045158877258 -0.2133791544776981
