LAMMPS data file via write_data, version 2 Aug 2023, timestep = 100000, units = metal

96 atoms
2 atom types
0 bonds
1 bond types

1.0767546072105114 11.512708061789638 xlo xhi
1.0767546072105114 11.512708061789638 ylo yhi
1.1308625950593978 12.091233069940763 zlo zhi

Masses

1 28.0855
2 15.9994

Atoms # full

8 1 2 -0.55 2.9351791831017984 3.0375539966084393 3.462647809713695 0 0 0
91 1 1 1.1 3.229197241758519 2.300395094944383 2.0113882002678567 0 1 0
51 1 2 -0.55 3.969458549908246 1.3373696123401266 3.1866308359795568 0 1 0
52 1 2 -0.55 4.782447986039982 2.0564085161805368 1.496960527306296 0 0 1
1 1 2 -0.55 9.72652298881506 1.7827082629908038 2.581709291494124 -1 1 0
96 1 1 1.1 10.029190402055562 2.8435002177456727 3.8080657882302336 0 0 0
32 1 2 -0.55 4.129831115399277 5.410723463037768 3.663317507256442 0 0 0
22 1 2 -0.55 5.6980173518771124 5.626426898502421 1.5234689085306814 0 0 0
72 1 1 1.1 4.278296006636312 6.066483899419261 2.1782508970460457 0 0 0
60 1 2 -0.55 7.150009342888161 3.79486851691 2.970477525774615 0 1 0
87 1 1 1.1 7.176715522722811 4.922764473303373 1.7573415005367168 0 0 0
37 1 2 -0.55 8.055033240988402 6.0059353293475475 2.763714061171874 0 0 0
73 1 1 1.1 11.451980698909178 5.68618328921913 3.7601984842126743 -1 0 0
55 1 2 -0.55 10.687806263252615 4.282380493434244 3.2929410882836616 0 1 0
53 1 2 -0.55 11.010563480837519 5.863360264234328 1.1473265520627294 -1 0 0
42 1 2 -0.55 1.4266785155494777 7.172315158714634 2.894113306101146 0 0 1
79 1 1 1.1 1.6615000741891268 7.145801657177793 1.1785554485609469 0 0 0
81 1 1 1.1 1.762408861467462 8.598360754444549 3.84794659176556 1 0 0
10 1 2 -0.55 4.465246499867137 7.660202047838368 2.3343691417154444 0 0 0
19 1 2 -0.55 3.141594900876021 9.43593629489013 3.350926662420378 0 0 0
93 1 1 1.1 3.8163886049812605 9.045834681256569 1.7921460338396211 0 0 1
12 1 2 -0.55 7.296868409954141 11.337568102584598 1.6734547465639018 0 -1 0
78 1 1 1.1 8.907589817942572 1.087003150352217 1.3111795559299924 0 0 1
63 1 2 -0.55 3.5813374251622054 3.308150020706917 6.024676637904942 0 0 0
28 1 2 -0.55 6.954374181126662 1.9109903162876933 5.085879360445181 0 0 0
15 1 2 -0.55 8.610819584194324 3.0238269282990027 4.600027391789686 0 0 0
71 1 1 1.1 6.984826072838766 3.5545874043626995 4.626240911357176 0 0 0
23 1 2 -0.55 6.673749460061377 4.1001913746288245 6.185012487704072 0 0 0
48 1 2 -0.55 10.970685683694548 2.089717403154117 4.934520406543699 -1 0 0
33 1 2 -0.55 2.363042379286565 5.163481492345879 4.567568533007088 0 0 0
83 1 1 1.1 3.647027150974185 4.048263694096684 4.537737819806942 0 0 0
58 1 2 -0.55 5.326267504338368 3.833385294929412 4.273050327529717 0 0 0
5 1 2 -0.55 7.984058972890923 4.915398209884477 4.910427328335149 -1 0 0
11 1 2 -0.55 1.6303203970798144 7.8474367421993305 5.305974496240407 0 0 0
77 1 1 1.1 8.620348138186415 6.294292378363591 4.319283043439286 0 0 0
17 1 2 -0.55 8.060011183592971 7.613367358467924 5.1276361265459105 0 0 0
75 1 1 1.1 8.376627293017012 8.561878175007097 6.440856071761173 0 0 0
3 1 2 -0.55 10.27334263326938 6.352349692900925 4.77411293357028 -1 0 0
67 1 1 1.1 10.887100346556831 7.1235898098428585 6.192084092641702 -1 0 0
64 1 2 -0.55 2.8671991325395196 11.325841709109682 5.578485654740933 0 0 0
94 1 1 1.1 1.1549446805474655 11.133365891081194 5.5918422769550205 0 -1 0
85 1 1 1.1 3.832363982409957 10.6361867760349 4.358355382824025 0 0 0
26 1 2 -0.55 5.273513101707561 10.361997514013105 5.141499444761412 0 0 0
68 1 1 1.1 6.534016520176835 11.032967470414818 5.9971875880600765 0 -1 0
35 1 2 -0.55 7.847189872636235 10.058932790451486 6.101199165742978 0 0 0
62 1 2 -0.55 11.3645230129301 9.875861374313892 4.5377343648305075 0 -1 0
30 1 2 -0.55 2.488147919351949 2.1454885993742447 7.986786520579353 0 1 0
70 1 1 1.1 3.604589334429214 1.8383174278423633 6.850497999978845 0 1 0
9 1 2 -0.55 5.1069402528315395 2.4669923403648575 7.1940129134694395 0 0 0
27 1 2 -0.55 7.00555463743454 3.3919494721459067 8.795038502330591 0 0 0
84 1 1 1.1 11.350307643742756 1.9270268852445576 8.32353315599761 0 0 0
56 1 2 -0.55 10.951969200054691 3.4942049806851165 7.988220962528413 0 0 0
65 1 1 1.1 5.97251652567404 3.792049131950995 7.589503170184375 0 0 0
18 1 2 -0.55 5.139349444482485 5.1552960176704445 7.932949232347989 0 0 0
80 1 1 1.1 4.8580815820376415 6.203664440303058 9.153451442455063 0 0 0
21 1 2 -0.55 11.4873732802271 6.077592239572661 7.277443717083227 -1 0 0
69 1 1 1.1 11.269138225046405 5.026340630776007 8.488257351563789 -1 0 0
46 1 2 -0.55 1.7523118051516549 8.832226405873403 8.707348813498772 0 -1 0
7 1 2 -0.55 3.7491240351809654 7.40971874331914 9.03973093355777 0 0 0
31 1 2 -0.55 7.590906669425077 7.984812415303534 7.735854619425044 0 0 0
76 1 1 1.1 7.184957036246872 8.13703721697633 9.309989218330548 0 0 0
44 1 2 -0.55 10.021089875682865 8.405895126812329 6.877151743506117 0 -1 0
24 1 2 -0.55 4.245792633848955 11.128597383717334 7.891104940021932 0 0 0
82 1 1 1.1 5.4452164306758215 10.82790254623809 9.054054101545063 0 0 0
6 1 2 -0.55 6.227535605844302 11.293683018065355 7.610921453672695 0 -1 0
90 1 1 1.1 10.818396843143585 9.473697948550175 7.981006757631148 0 -1 0
13 1 2 -0.55 11.167429030190394 10.988987348833202 7.270411005070523 -1 0 0
43 1 2 -0.55 3.329141312951314 3.776514881311771 1.277672195857793 0 0 0
16 1 2 -0.55 2.028749516764056 1.7023828735253708 12.005108060812747 1 0 -1
34 1 2 -0.55 2.1342414133645526 3.2860253511775475 10.44084420468168 1 0 0
20 1 2 -0.55 6.03079499570542 1.376840487809461 10.362794585648585 0 0 0
38 1 2 -0.55 8.404542648884785 2.0924068050885225 11.01505116461994 0 0 0
88 1 1 1.1 7.067911271159921 2.74946201248509 10.287890281273599 0 0 0
74 1 1 1.1 11.414684284707377 2.139915009685042 10.788006277055398 0 0 0
2 1 2 -0.55 10.18549372933305 1.1317997890235678 11.203693663720435 0 0 0
45 1 2 -0.55 10.408211826877032 3.3746416259908822 11.345339027333337 -1 0 -1
39 1 2 -0.55 2.9384052417195123 5.949443977232579 12.075359332061165 0 0 -1
40 1 2 -0.55 2.1211997782997987 5.1584786027845135 9.508651832107777 0 0 0
95 1 1 1.1 2.9063969792766216 4.680341899944466 10.914746807065022 0 0 0
14 1 2 -0.55 4.31764379504741 5.145878331647233 10.245603478729967 0 0 -1
4 1 2 -0.55 6.715749349949455 3.9029997900102957 11.41762275435055 0 -1 0
49 1 2 -0.55 8.439261522775123 5.213879573635788 11.666952085196794 0 0 -1
89 1 1 1.1 9.977727769961273 4.951053618119495 11.236973742404892 -1 0 -1
47 1 2 -0.55 10.191209143815815 5.31607438639474 9.67067783822438 -1 -1 0
59 1 2 -0.55 2.800192817647873 8.376322628013977 11.528050486377794 1 -1 0
92 1 1 1.1 3.0353166655938466 8.721221375620317 9.805763444003889 0 -1 0
57 1 2 -0.55 6.21916067640272 6.897056885783838 9.64473459477486 0 0 0
61 1 2 -0.55 8.428569562820204 8.058295475845554 10.337680693505717 0 0 0
25 1 2 -0.55 11.036870370782815 7.930912329814614 11.113415096181738 0 0 0
86 1 1 1.1 9.733874132132616 8.89406501196751 10.81906697154611 0 0 0
41 1 2 -0.55 5.045075156790148 9.906893025474918 1.1717642361362284 0 0 0
29 1 2 -0.55 4.004350568795266 10.06972328460203 9.596204021129642 0 0 0
66 1 1 1.1 5.805534633529917 11.331133090573346 11.965191556111806 0 0 -1
36 1 2 -0.55 6.359330017734331 9.530758042597753 9.551541842126724 0 0 0
50 1 2 -0.55 10.021131234834915 9.65107442159217 9.403914364879602 0 0 0
54 1 2 -0.55 9.32152277746927 9.935171583969925 11.990736433321935 0 0 0

Velocities

8 -2.6556135818917714 -0.07134113228660054 -1.0622309666309184
91 -1.0411408476163364 -0.3497094217056177 -0.10639532625185844
51 0.6326057757025635 -0.10520357989536609 -1.9256857233000628
52 0.15397557342867435 -1.0872147327961794 -0.6950190118908696
1 0.14885130321313378 -0.5804747677993596 0.10393729398895331
96 0.4187184135541873 -0.7221235199282537 0.11144946556037086
32 -0.9279956305134458 -1.2963545497600641 -0.1505445818422122
22 -0.3844869466488215 -0.0730358007763956 -0.27002158934147186
72 0.5883207626348786 -0.30506452495146164 0.14335436530756288
60 0.6523589275015248 0.932672103470789 0.5516955689070969
87 -1.4380939282155607 -1.1092374493628825 1.176399563127758
37 0.021430223342340775 1.7026901094249325 -1.3365956414593574
73 -0.7531270588096022 -0.1973310066859047 0.4724872243700744
55 -0.5325885866432839 -0.5559037621865351 -0.9845346312363872
53 -0.20714695804771996 -0.06681489214717298 -1.4138420568569257
42 0.2548729624101369 -0.6173641191569036 1.8235333093249013
79 0.653750776683626 -0.14013904454984372 0.5903155995395799
81 1.0064505895200062 -0.8468052564320333 0.07215956858760435
10 -0.21663683133140613 0.06659412556875052 -2.6349724466936695
19 1.2608729128494847 0.4303423396616151 0.7731236633754562
93 1.2983207883979604 1.0191228294231423 -0.05334292856028928
12 -1.5038677175291495 -1.707758962472243 -1.2161656714745106
78 0.1461784100396995 0.5634040843560179 0.625725286709714
63 -0.14938613410813648 0.17661978030053194 1.0631583174176604
28 -0.42810045503014377 -0.9632175934415238 0.5019931609429711
15 -0.9042329581739327 1.0899264154434338 -0.38798149528872505
71 -0.35070477005118295 0.3468745910435292 -0.7345911139832131
23 -1.4133272492406495 -0.5072445017732105 0.583618681035555
48 3.27246997035994 -0.08960402399479293 -1.862731316957107
33 -0.5725443920903059 0.38917156420568644 -0.1231099859204486
83 -1.2228791171158737 1.1202131766232184 0.5739084002547961
58 0.546195779901262 -0.41342185632029793 0.9803019659941681
5 -0.0948629936486999 -0.8213640183272708 1.401876013209341
11 0.1213104898825106 0.1809408693770533 1.3711087508682298
77 0.20456313123064504 -0.28991547764468206 1.3565533354632036
17 -0.27367795774651554 -0.5018923567510725 1.3506357494210652
75 -0.1765452746348406 -0.17443662945614677 1.0224040933895244
3 -1.5879884522293712 1.033799966601725 -0.10657325045165081
67 0.14811211095330068 -0.4329164069590278 0.6456122823583221
64 0.07656001695565237 -1.1764733104125187 -0.1727081995091402
94 -0.3257016068274138 0.8771804293370283 0.8118376746308993
85 0.004326873017093109 0.058047259405513155 -0.21823404353131565
26 0.31402872163985185 -1.220933774190055 2.0475011314815585
68 1.5322745723846463 0.9428592036950634 -1.1636041596611528
35 -0.08764426219116828 -1.246217696887972 -1.4023753553248264
62 1.2642727009885009 0.7517679072250154 -0.15834296115593544
30 -0.7116302705491878 -1.0026519723144014 -0.5988552620168717
70 0.3696997668599496 -0.3883673621000594 -0.9803898167481643
9 0.09345146467874096 -0.89854721879025 -0.2265064818293365
27 -0.843918152405802 -0.8608095272268264 -0.6526244037822475
84 -0.20645916734435196 -0.7494849467743719 0.19892293775207884
56 -0.17365917866186603 0.6767094195405127 0.4027532129220025
65 -0.24169486156922085 -0.857396460081946 -0.46176693256230367
18 0.23563777134790137 -0.7022100643773532 -0.43215369602814774
80 -0.29767103288998004 -0.7415150605731484 0.8755806496425971
21 -0.9657095882210898 1.3647241567142039 -0.8659441625843958
69 -0.7590583432867076 -0.4748262901228059 -1.1714259759806243
46 0.9055047730540998 1.1198181866892118 1.2892560838143095
7 -0.6701124570962353 -0.6474248421162379 0.015009303835674536
31 0.30349562122412244 -2.4590980585271978 -0.8293339980894432
76 0.12030671636980723 1.3008952389847563 -0.6617326444838715
44 0.34664304717671324 1.4141101478798885 -0.45301660976352126
24 -1.2009915969679075 2.000781910414814 0.023938647613036542
82 -0.08580304561891372 -0.17231939166663474 0.27057462336519084
6 0.31842716950032385 1.0376049843844177 1.555600075027119
90 0.30801273025907583 -0.44324000716415046 -0.8551714087274864
13 -2.0672062429029108 0.6326618246120894 -0.2721058188742336
43 0.11237707021666649 -0.28691633725908633 -0.4018190383658827
16 -0.5738362929131638 0.30335127351006486 0.008546073376291175
34 0.20948096810137135 -1.2247978596540727 -1.2052940598409618
20 1.364272410891566 0.19968713372536823 -0.07173522734928016
38 0.6848421123886885 -1.643063867739362 -0.4592758133119289
88 0.08296205803266476 1.476057833037525 1.3759255255748526
74 -1.8758307114193356 0.8829731102893774 0.24811175916403524
2 1.6348309650811095 0.8443267301452602 -0.5737364572139783
45 0.34979482965589154 0.766667925445388 -0.735961353309016
39 0.6932825942668452 0.29526664513312767 -0.2346934478885667
40 -0.19123894699276264 -2.098861674621583 1.3613622607891422
95 0.5336992455711896 0.5557582262306454 -0.9528937956411723
14 -0.04375945945275936 -0.22360250027053338 2.1046534697268866
4 0.09208606467138297 2.562118366612782 -0.1449753326736962
49 0.03683060070118519 -0.22993979264160175 1.3321421009209307
89 -1.0170800327591532 0.4169584135034952 -0.5003393861200142
47 -0.07127562396416441 -0.5024926413944414 1.5541828782775073
59 1.5745462475615726 -1.726706950689914 -0.10795397789888857
92 -0.38685682180451136 -0.5490068149597113 -0.07633498443813018
57 0.5762177985834304 -0.6229704887634454 -2.051815731138784
61 2.0809326710033447 1.4531097056339826 -0.22778086674031234
25 -0.028638204359403816 -0.2648621100517957 0.20678755078555175
86 0.5029916843586231 1.991932564660458 -0.12186041140852055
41 0.5626359532299271 -0.5564711875010385 0.24688238594412507
29 -0.47395491704627707 0.7194366117709723 1.3932284370204235
66 0.26600088769513014 0.3227092456417994 -0.09371882051737644
36 3.263988597263048 1.6126068028139946 -0.43100864909708514
50 -1.251562050975654 -0.2594628123841959 1.4942465939952934
54 0.5487213961946298 0.4098475546634615 -2.908297052804792
