96
 Atoms. Timestep: 0
2 0 7.95642 4.74695
2 4.63304 0 11.358
2 0 4.63304 4.74695
2 7.95642 0 11.358
2 0 4.63304 8.47514
2 7.95642 0 1.8641
2 0 7.95642 8.47514
2 4.63304 0 1.8641
2 10.7421 8.43088 6.61105
2 4.15858 10.7421 0
2 1.84736 4.15858 6.61105
2 8.43088 1.84736 0
2 1.84736 8.43088 6.61105
2 8.43088 10.7421 0
2 10.7421 4.15858 6.61105
2 4.15858 1.84736 0
2 10.5201 6.29473 5.04003
2 6.29473 10.5201 11.6511
2 2.06934 6.29473 5.04003
2 6.29473 2.06934 11.6511
2 2.06934 6.29473 8.18207
2 6.29473 2.06934 1.57102
2 10.5201 6.29473 8.18207
2 6.29473 10.5201 1.57102
2 10.1594 8.65935 9.20274
2 3.93011 10.1594 2.59169
2 2.43004 3.93011 9.20274
2 8.65935 2.43004 2.59169
2 2.43004 8.65935 9.20274
2 8.65935 10.1594 2.59169
2 10.1594 3.93011 9.20274
2 3.93011 2.43004 2.59169
2 2.43004 3.93011 4.01936
2 8.65935 2.43004 10.6304
2 10.1594 8.65935 4.01936
2 3.93011 10.1594 10.6304
2 10.1594 3.93011 4.01936
2 3.93011 2.43004 10.6304
2 2.43004 8.65935 4.01936
2 8.65935 10.1594 10.6304
2 0 10.703 0
2 1.88643 0 6.61105
2 0 1.88643 0
2 10.703 0 6.61105
2 0 0 1.872
2 0 0 8.48305
2 0 0 11.3501
2 0 0 4.73905
2 11.2706 2.31295 2.18973
2 10.2765 11.2706 8.80078
2 1.31887 10.2765 2.18973
2 2.31295 1.31887 8.80078
2 1.31887 2.31295 2.18973
2 2.31295 11.2706 8.80078
2 11.2706 10.2765 2.18973
2 10.2765 1.31887 8.80078
2 1.31887 10.2765 11.0324
2 2.31295 1.31887 4.42131
2 11.2706 2.31295 11.0324
2 10.2765 11.2706 4.42131
2 11.2706 10.2765 11.0324
2 10.2765 1.31887 4.42131
2 1.31887 2.31295 11.0324
2 2.31295 11.2706 4.42131
1 11.0086 7.83654 8.10972
1 4.75292 11.0086 1.49867
1 1.5809 4.75292 8.10972
1 7.83654 1.5809 1.49867
1 1.5809 7.83654 8.10972
1 7.83654 11.0086 1.49867
1 11.0086 4.75292 8.10972
1 4.75292 1.5809 1.49867
1 1.5809 4.75292 5.11238
1 7.83654 1.5809 11.7234
1 11.0086 7.83654 5.11238
1 4.75292 11.0086 11.7234
1 11.0086 4.75292 5.11238
1 4.75292 1.5809 11.7234
1 1.5809 7.83654 5.11238
1 7.83654 11.0086 11.7234
1 10.1088 10.1088 3.30552
1 2.48067 10.1088 9.91657
1 2.48067 2.48067 3.30552
1 10.1088 2.48067 9.91657
1 2.48067 10.1088 3.30552
1 10.1088 10.1088 9.91657
1 10.1088 2.48067 3.30552
1 2.48067 2.48067 9.91657
1 0 1.60471 1.57853
1 10.9848 0 8.18958
1 0 10.9848 1.57853
1 1.60471 0 8.18958
1 0 10.9848 11.6436
1 1.60471 0 5.03252
1 0 1.60471 11.6436
1 10.9848 0 5.03252
96
 Atoms. Timestep: 2000
2 0.950942 10.0727 5.57634
2 6.60564 12.3521 12.3951
2 11.707 5.48928 4.63384
2 8.47556 11.6399 11.4843
2 12.4975 6.13872 8.27229
2 7.61023 11.9496 1.98618
2 4.71419 7.13053 8.70558
2 4.40009 0.0627234 2.12338
2 11.2988 8.99948 6.73322
2 4.13761 11.6143 0.196325
2 0.751145 5.10588 6.466
2 7.86068 1.32489 13.116
2 3.56169 8.79971 7.02833
2 7.92203 9.84481 -0.0346217
2 10.4154 4.5138 6.77436
2 4.11275 2.04793 13.0516
2 0.115248 7.5448 5.25287
2 6.30657 10.1597 12.0985
2 2.44072 6.86163 5.60335
2 6.04225 1.84827 10.864
2 2.24628 6.883 7.93414
2 5.78575 1.72572 1.5528
2 10.2762 6.12494 8.49866
2 5.92306 10.9247 2.04798
2 10.8476 8.21215 9.30721
2 3.46245 10.4436 2.92802
2 1.87917 4.15579 8.91924
2 7.91087 2.074 2.41154
2 3.58437 9.12474 9.40964
2 9.08815 9.7826 1.83496
2 10.3413 3.12652 8.72593
2 3.00179 2.27501 2.5034
2 1.4571 5.01111 3.5184
2 8.71262 1.75661 10.4272
2 11.6932 9.01576 3.97284
2 4.51716 11.3294 10.756
2 9.90679 3.60734 4.12767
2 3.37362 2.02733 10.1504
2 2.55244 9.01651 4.63368
2 9.27351 9.73772 10.7802
2 0.795512 10.5182 0.176504
2 0.96779 1.12479 6.35827
2 12.3313 2.05604 0.0100619
2 10.4232 11.7 6.00995
2 0.236907 -0.19039 1.61378
2 0.0374334 12.5941 8.36532
2 12.4433 11.8562 11.4214
2 11.2543 0.22028 4.21826
2 10.4728 1.51983 2.15144
2 10.5113 10.7709 8.77009
2 1.3722 10.8884 3.02501
2 2.66968 1.30566 8.24599
2 0.486579 2.55329 1.90966
2 2.24811 11.4072 8.39401
2 11.4098 10.5525 2.0854
2 10.1979 0.437873 8.31898
2 2.03566 10.5939 11.2216
2 0.798763 2.77396 4.28165
2 11.3507 1.22071 10.4566
2 9.82973 10.8947 3.83984
2 12.3667 9.7415 10.4534
2 8.95262 0.483082 4.02378
2 0.766532 0.435754 13.1689
2 2.57538 11.4439 6.21983
1 11.0479 7.52916 7.82376
1 4.492 11.3171 1.86628
1 1.24254 5.47411 7.80117
1 7.32388 0.928865 1.42836
1 3.46981 7.9482 8.39728
1 7.43001 10.1658 1.89645
1 9.66525 4.57585 8.1644
1 4.28598 1.60767 1.43837
1 0.725647 5.93397 4.9295
1 7.48482 0.745621 11.4537
1 12.352 9.06274 5.59446
1 5.33828 11.2159 12.3979
1 10.5496 4.58108 5.14681
1 4.43644 1.82899 11.5465
1 3.6397 8.22909 5.59363
1 8.01883 9.99844 11.5808
1 10.4639 9.56039 2.97343
1 2.92465 10.4557 9.75819
1 1.73266 3.51134 2.93631
1 10.0841 1.55682 9.44331
1 2.12118 10.6801 4.5686
1 10.7079 9.60559 10.1113
1 9.32471 2.07737 3.21532
1 2.55141 2.63838 9.00786
1 12.0489 1.44997 1.9227
1 11.24 12.1253 7.49508
1 0.0954645 10.931 1.63155
1 1.7439 -0.0562365 7.42395
1 0.516066 10.5517 11.6791
1 -0.0944701 1.33537 4.7893
1 12.2855 0.973506 11.9476
1 9.8163 12.2253 4.5865
96
 Atoms. Timestep: 4000
2 8.87683 5.8874 3.57565
2 3.70277 0.647879 0.190828
2 12.4657 0.791299 7.5601
2 8.57829 1.0562 11.0855
2 0.404431 7.20196 8.17886
2 7.94394 0.593853 2.39287
2 6.07276 7.53168 8.00043
2 2.37273 1.55663 1.58902
2 10.0982 7.5702 6.32234
2 4.02839 10.4613 0.189978
2 0.853634 6.05579 6.33145
2 7.34356 2.75703 0.938431
2 3.73047 7.40433 6.00241
2 8.14732 12.0638 12.9214
2 11.4229 3.0834 8.46407
2 3.88283 2.86852 12.6817
2 10.9679 5.51221 4.70807
2 5.99238 12.0976 11.5478
2 1.28911 6.16728 4.21627
2 6.26093 4.47915 11.6724
2 3.31467 6.73031 8.08645
2 5.53407 1.62219 1.75503
2 11.2831 5.81206 7.99299
2 6.63045 11.301 2.07835
2 10.2281 8.61833 8.69346
2 3.90662 9.71473 2.27606
2 2.14645 4.8614 9.42715
2 7.88064 1.99761 3.76497
2 4.21718 9.31688 7.85375
2 8.49672 9.95252 1.61317
2 9.61671 3.60588 9.66994
2 3.42994 3.29168 2.84816
2 1.13472 4.22935 4.78393
2 8.53792 3.11746 11.6979
2 9.30028 8.01561 3.57467
2 4.09046 11.011 10.3012
2 10.9914 2.45942 3.985
2 3.77731 4.39716 10.956
2 2.58592 8.19614 3.66215
2 8.5258 11.4656 9.76426
2 0.845685 10.023 12.4415
2 2.18785 12.1283 6.21553
2 1.29201 1.63644 12.8662
2 10.9514 10.5453 6.00415
2 0.278376 11.8176 0.750955
2 1.0766 11.1285 7.75958
2 0.800363 0.158512 10.6527
2 11.8533 12.3444 4.26745
2 8.94268 2.07637 6.51445
2 11.6624 10.3535 8.4906
2 1.40668 9.40669 1.99419
2 2.02923 1.86459 8.58035
2 0.765436 2.48418 2.70204
2 3.31393 11.8693 8.49165
2 11.1779 10.135 1.79504
2 9.36177 1.08442 8.24268
2 2.34411 9.95203 10.2499
2 1.88224 1.64185 4.18038
2 11.2164 1.63344 11.7941
2 9.71862 10.8452 3.41511
2 11.5779 10.4377 10.7057
2 9.77799 0.316881 5.24899
2 1.21075 2.718 10.2316
2 1.51838 10.7375 4.20039
1 11.1405 7.34487 7.69357
1 5.10537 10.4864 1.6326
1 1.73549 6.27126 8.16286
1 7.02229 1.85363 2.34889
1 4.39985 7.79965 7.37071
1 7.98064 11.5009 1.50048
1 10.6026 4.40966 8.81806
1 3.96987 2.06785 1.38142
1 0.133754 5.29636 5.2611
1 7.74815 3.94091 12.7854
1 10.0981 7.01255 4.92633
1 4.06704 11.835 11.8719
1 10.9765 1.55636 7.87831
1 4.58577 4.40388 12.2565
1 2.42178 7.33371 4.95209
1 7.76962 12.0408 11.4471
1 9.69737 9.31912 2.35162
1 3.30608 10.1683 8.89043
1 1.89956 3.1479 3.61734
1 9.7172 2.1708 11.0724
1 2.23372 9.58959 3.21986
1 10.2431 10.3403 9.45875
1 9.44053 2.06801 4.74558
1 2.86831 3.43839 9.49562
1 0.776939 0.971117 1.47756
1 12.0503 10.3556 6.96909
1 0.240084 10.2395 1.35306
1 1.85888 0.408998 7.86153
1 0.992659 10.8567 10.9825
1 1.07696 0.146028 4.87203
1 0.494557 1.50237 11.3948
1 10.6805 11.5664 4.61917
96
 Atoms. Timestep: 6000
2 12.5229 8.9062 5.37805
2 5.72377 3.04301 0.215268
2 1.22804 2.71574 8.44642
2 7.70124 0.411333 10.7567
2 11.2507 5.90269 7.02284
2 8.16159 1.51888 2.13369
2 2.83434 5.94641 9.6123
2 3.14398 0.775688 1.17086
2 10.1906 7.31132 5.99968
2 5.10009 10.8211 0.515357
2 0.961533 5.28984 6.10761
2 7.30275 3.97155 1.20241
2 3.13673 7.42307 6.76688
2 7.61483 11.6278 12.727
2 10.6537 3.41523 7.98403
2 3.91725 2.3025 12.2482
2 12.1356 6.33088 4.30189
2 6.17234 11.0332 10.9025
2 2.59486 6.11993 4.28853
2 5.8474 3.91057 11.3744
2 0.878562 6.85769 8.73715
2 5.98869 1.90228 1.9931
2 8.12208 5.64011 7.15528
2 6.81016 11.1768 2.12211
2 9.38589 7.8338 7.79574
2 4.44596 10.4968 2.61889
2 2.02781 4.90565 7.81689
2 8.73938 3.3643 3.60873
2 3.22337 8.35774 9.16578
2 8.76938 11.2949 2.92065
2 8.61976 2.95477 9.84484
2 4.01423 2.8832 2.05024
2 1.9123 4.11621 4.14412
2 8.33541 3.05913 11.8298
2 10.4068 8.43525 3.64042
2 3.53262 10.0886 11.1933
2 10.3893 4.1423 5.46073
2 3.46377 4.06036 9.76544
2 3.59427 8.66247 4.57328
2 8.69643 10.2092 9.68959
2 12.3365 9.6793 12.7002
2 3.30985 12.2876 5.87381
2 0.511772 1.7932 12.7276
2 11.003 12.1999 6.61241
2 0.218091 12.0978 0.585733
2 12.3161 10.8231 9.35977
2 11.7957 11.8503 11.267
2 0.581899 0.0516928 5.05446
2 8.82727 2.79621 6.43675
2 10.9505 9.68985 8.21754
2 1.55736 10.0177 2.37589
2 3.12168 2.0442 7.91576
2 1.799 2.51361 1.88024
2 3.08767 11.3713 8.66897
2 10.9508 10.2509 1.86597
2 11.4922 0.58182 8.44917
2 1.4391 9.32652 10.0176
2 2.72936 1.70378 4.25798
2 9.90844 1.06639 12.2201
2 10.6932 11.3833 3.71127
2 10.6427 9.15815 10.3982
2 10.404 1.63161 4.56391
2 11.7928 2.33183 10.25
2 2.76348 11.2649 3.7054
1 9.65749 6.37292 7.25554
1 5.32017 11.83 2.08575
1 0.241698 5.60671 7.77351
1 7.35551 2.88264 2.64808
1 2.61174 7.21015 8.42032
1 8.20322 11.9806 1.35009
1 9.12507 3.42738 8.09058
1 4.54953 1.57763 0.964941
1 1.08049 5.60349 4.54884
1 7.1823 3.8816 12.5077
1 11.3333 7.80885 4.70018
1 4.87607 10.5586 11.8504
1 11.883 2.55595 8.67469
1 4.37627 3.67015 11.2282
1 3.60969 7.20358 5.14094
1 7.63789 11.2034 10.7812
1 10.0468 10.1057 3.18242
1 2.90683 10.0484 9.84434
1 2.54938 2.80972 3.1143
1 8.70447 1.41484 11.248
1 3.4112 9.47847 2.83341
1 9.95276 8.5509 9.14913
1 9.60677 2.93742 4.8523
1 2.68019 3.65917 8.37507
1 1.49743 0.929329 0.964694
1 11.0782 11.2731 8.24113
1 12.2823 10.3462 1.10144
1 3.567 0.465116 7.80926
1 12.3936 9.96429 10.7361
1 2.28369 0.152655 4.54773
1 11.4602 1.09532 11.7344
1 11.0928 12.3943 5.06412
96
 Atoms. Timestep: 8000
2 11.5052 10.2222 5.39232
2 4.8175 1.45808 12.4876
2 0.907344 2.15219 8.05165
2 7.50595 12.2204 11.2119
2 0.795108 8.82429 9.01597
2 7.78395 11.7468 2.04434
2 3.38971 9.3824 9.55239
2 2.25342 1.18366 0.861408
2 12.0348 7.4848 6.23074
2 4.45963 9.93626 13.0349
2 2.52995 5.20528 6.4426
2 6.02224 9.80634 11.5223
2 2.46562 8.53645 7.32564
2 7.60774 10.0854 12.8129
2 10.7436 1.44783 7.66682
2 2.79479 3.78497 8.01846
2 0.890756 8.76101 4.53541
2 5.25658 8.16119 10.6654
2 2.26935 6.84729 4.58039
2 5.37433 3.80854 10.4298
2 3.44961 6.96253 6.43097
2 5.16642 0.376576 1.92233
2 0.976584 6.52906 8.0403
2 6.57161 9.6491 1.91073
2 10.8568 7.98021 8.82207
2 4.3468 9.61054 2.66879
2 3.50252 5.64817 9.47828
2 7.21306 1.43611 3.99788
2 2.36 10.9606 8.63581
2 9.04445 9.42304 2.09925
2 8.384 1.90005 9.44767
2 2.6404 4.2051 1.79227
2 2.0321 4.32995 3.8212
2 6.75206 2.18651 11.7006
2 10.6594 8.83083 3.85065
2 3.60251 11.6476 10.7777
2 9.91989 2.70204 5.13753
2 3.78259 5.34912 12.6416
2 3.68652 9.02907 4.61099
2 8.62003 10.1136 10.259
2 0.912751 10.2715 12.5405
2 1.91719 1.20825 6.27725
2 11.8507 1.52351 13.1547
2 10.7207 11.6059 6.85945
2 0.410643 12.1562 0.459893
2 12.7124 9.9455 7.3467
2 11.2941 12.199 11.4993
2 0.105131 12.2408 4.95617
2 8.89729 1.1181 6.45668
2 10.5642 10.5213 8.5308
2 2.5527 10.181 2.02841
2 6.00521 5.90084 10.3736
2 0.537615 2.39278 1.99233
2 2.93946 1.08752 8.5528
2 12.0858 9.65031 1.45437
2 0.18262 -0.0313398 8.17363
2 1.04711 12.1072 10.0009
2 1.17186 1.8701 4.06229
2 9.42565 1.64877 11.6245
2 11.1646 11.1471 3.52017
2 11.4234 9.92976 10.262
2 9.817 0.472211 4.53429
2 11.9529 1.72419 10.3948
2 2.50582 11.7229 4.46525
1 12.297 8.13194 7.83917
1 5.06591 9.4073 1.08545
1 3.03851 6.03064 7.91208
1 6.76466 0.262028 2.63434
1 2.05203 9.48928 8.49652
1 7.9725 10.3888 1.23952
1 9.25601 1.93192 8.01338
1 4.02937 0.824028 0.532978
1 1.63684 5.49256 4.77239
1 4.94889 2.26288 11.0535
1 11.7438 8.27388 5.06507
1 4.36196 9.74941 11.114
1 12.2506 1.37665 8.43702
1 4.41064 5.17217 10.7017
1 2.63055 8.23772 5.55012
1 7.26539 10.7193 11.5122
1 10.6462 9.63269 2.52411
1 2.64229 12.345 9.68152
1 1.53773 3.23466 2.88317
1 7.98385 1.08566 10.8681
1 3.29399 10.3764 3.65149
1 9.93073 9.09053 9.42174
1 8.68016 1.50315 4.75583
1 3.82455 4.35451 0.694892
1 0.429859 1.02113 0.812473
1 12.1327 11.1959 7.87818
1 1.07061 10.4256 0.971146
1 2.2852 2.15662 7.6534
1 12.455 11.031 11.1881
1 1.42826 0.35813 4.50649
1 11.0444 1.38892 11.7383
1 11.1144 11.9461 5.04676
96
 Atoms. Timestep: 10000
2 11.8318 9.88355 5.56834
2 4.73435 1.96657 12.326
2 0.939868 1.24964 7.62716
2 8.50509 10.7966 10.1694
2 1.55535 9.05413 8.68355
2 7.09438 11.542 3.21907
2 4.81304 8.803 8.57302
2 1.37946 1.13861 12.4436
2 11.7149 8.11726 6.92066
2 4.24095 8.71855 11.323
2 2.91327 5.19062 7.29171
2 6.26065 9.37535 9.96557
2 2.43426 8.67574 6.51684
2 6.10367 9.63164 1.20938
2 10.7289 2.91602 8.56578
2 2.76868 2.99338 6.03606
2 0.982017 7.84711 4.81883
2 5.79 5.04871 9.27856
2 3.11666 6.26219 5.59974
2 4.99679 3.36146 10.5035
2 3.41675 7.2144 8.99983
2 5.15507 1.58131 2.50014
2 0.40552 6.86374 8.58779
2 4.51592 11.4627 12.6868
2 10.7217 8.36388 9.69215
2 3.88047 9.6348 1.55765
2 3.50286 4.83166 9.71647
2 7.84283 2.00111 4.11526
2 3.50126 10.6929 8.9585
2 8.58868 9.4232 2.61122
2 9.6678 5.63669 8.5406
2 3.15214 4.5783 1.86689
2 1.87944 4.54014 4.69653
2 6.55375 0.610873 10.8592
2 10.6935 8.3478 3.8857
2 2.69094 0.86373 11.4329
2 10.7437 3.27069 3.56899
2 4.47823 5.33602 12.2529
2 3.53144 8.79283 4.11361
2 8.62312 8.34656 9.62219
2 1.43701 10.9327 12.4736
2 1.94507 0.911928 5.92509
2 11.393 1.9611 12.8402
2 9.96928 11.1194 6.0533
2 0.751967 12.074 1.42583
2 11.294 9.90738 8.15851
2 11.4404 12.0095 11.1768
2 0.32249 0.453202 4.66822
2 9.75775 3.8535 5.80166
2 8.53313 10.2599 8.125
2 2.03959 9.96353 2.86344
2 5.0765 6.86128 10.9316
2 0.870882 2.94818 1.98794
2 3.01635 0.931684 8.97102
2 11.4167 10.112 1.7656
2 10.0843 12.2979 8.5971
2 1.71833 10.794 10.0425
2 2.10582 2.5042 3.55406
2 9.06125 0.868333 11.6962
2 10.3594 10.8547 3.55908
2 11.1046 9.92845 11.5159
2 10.4058 1.07082 5.27694
2 10.7264 1.67544 10.1937
2 2.74186 11.7837 3.63057
1 12.2252 8.5855 8.85854
1 4.67964 9.60248 12.8999
1 2.16143 5.90719 8.94363
1 6.43547 1.10558 3.57578
1 3.07748 9.46146 7.8072
1 7.35003 10.4063 2.20335
1 10.1319 4.53637 7.1818
1 4.54791 1.17912 0.875435
1 2.85347 4.63144 5.90009
1 5.32204 1.806 11.0381
1 11.6395 8.32042 5.2821
1 5.19447 8.03916 9.80501
1 11.4972 1.33807 8.69334
1 4.86639 5.09633 10.7562
1 2.62788 8.0035 4.96896
1 7.86059 9.63862 9.25444
1 10.248 9.32851 2.79295
1 3.10881 11.8044 9.96875
1 1.88134 3.95552 2.95265
1 7.9845 11.9609 11.2894
1 3.69191 10.0539 3.09127
1 10.3708 8.30892 11.3284
1 9.49774 2.56774 4.82136
1 4.41355 5.42404 1.33369
1 0.501515 1.45585 1.21842
1 9.92827 10.9444 7.61658
1 0.783134 10.4144 1.52437
1 2.52941 1.69329 7.29541
1 0.533029 10.7869 11.1095
1 2.095 0.983512 4.32062
1 10.6712 1.12205 11.6359
1 11.1734 11.6749 4.61922
96
 Atoms. Timestep: 12000
2 11.7691 10.1141 4.82995
2 4.52918 1.49699 12.1425
2 11.9993 2.61514 7.72011
2 6.87159 10.9992 10.7029
2 1.70491 8.76004 8.58259
2 8.57969 11.4315 11.9651
2 3.92323 7.90236 10.3757
2 2.14458 1.31735 12.8046
2 11.7313 7.90162 6.81899
2 4.666 8.66655 13.1495
2 3.26247 5.00753 7.37108
2 6.91462 8.22708 10.401
2 2.59534 9.15553 6.48898
2 6.742 10.2478 0.982316
2 9.09936 2.51586 7.36667
2 2.15131 3.25128 6.78617
2 0.588896 7.76307 4.79616
2 11.7414 5.69877 6.26196
2 1.98691 5.96816 5.40695
2 4.99107 3.67418 11.4952
2 3.57186 7.50161 9.00459
2 5.50435 0.92792 0.754408
2 1.46019 6.54739 8.28349
2 4.46032 11.4079 0.867646
2 12.2372 8.24705 9.61128
2 4.49376 10.1193 2.54339
2 3.58219 4.88468 10.0898
2 7.72511 1.52975 3.30572
2 2.66084 11.733 8.48989
2 8.99998 9.50823 1.5728
2 10.1366 5.68506 6.27656
2 3.37815 2.43759 1.67297
2 2.84604 3.18281 4.22639
2 6.42754 0.954424 10.7106
2 10.3178 8.53648 3.78866
2 4.18063 1.03469 10.0404
2 5.77317 2.89965 2.15618
2 3.93708 4.42459 0.342136
2 2.89079 8.55546 4.06681
2 9.49655 9.24754 11.304
2 0.41645 12.3035 0.335029
2 1.83739 0.661132 7.10102
2 11.8242 2.08778 12.3195
2 10.305 10.9635 6.82217
2 2.25825 12.5494 1.53569
2 11.1272 9.90088 9.22416
2 11.8563 0.304451 10.939
2 0.140536 12.4704 4.98878
2 9.10263 2.82638 5.08842
2 8.91804 10.4114 9.17006
2 1.60483 10.4977 3.06965
2 5.18448 6.0897 11.6156
2 1.11217 2.51097 1.5483
2 2.70494 1.89149 8.85224
2 11.8397 10.6228 2.28236
2 10.4909 0.303867 8.03823
2 1.18485 11.9056 10.1729
2 1.80732 0.801759 3.85725
2 9.27458 0.862868 11.8808
2 10.0492 10.8508 4.10509
2 12.627 10.0244 11.5468
2 9.97962 0.723032 5.50368
2 10.181 2.00993 9.97065
2 2.91794 11.386 4.94462
1 0.422987 7.84539 8.11275
1 5.29757 9.83706 1.0908
1 2.89033 5.93442 8.74649
1 6.71885 1.43782 1.84613
1 2.96678 9.95952 8.0489
1 8.27453 10.4833 0.520591
1 9.33347 4.09196 6.19777
1 3.73031 0.88321 0.666662
1 2.88673 4.39824 5.71584
1 5.25311 1.97822 10.6555
1 11.525 8.34183 5.24649
1 5.47531 8.07559 11.3302
1 10.322 1.80778 8.42633
1 4.10227 5.09932 11.7413
1 2.23501 7.85064 5.53285
1 8.07958 9.64286 10.3469
1 10.0441 9.79301 2.69284
1 2.57208 0.413989 9.68954
1 2.07821 2.1452 2.81497
1 7.76395 0.0414575 11.0852
1 3.2079 10.0971 3.56651
1 11.3371 9.19954 10.7442
1 8.55865 1.33465 4.79172
1 4.21583 3.74926 1.88979
1 0.351588 1.65595 0.444045
1 10.3483 11.0997 8.40413
1 0.950732 11.4839 1.70492
1 1.31165 2.36064 7.71639
1 0.41549 11.6591 11.6507
1 1.95608 12.8117 5.50925
1 10.7209 1.6587 11.3093
1 11.0285 11.8813 5.24222
96
 Atoms. Timestep: 14000
2 11.499 9.04142 4.66653
2 4.49429 1.31609 12.0076
2 11.6627 1.68601 7.86097
2 7.72088 11.6257 10.5663
2 1.21271 7.92181 8.57015
2 7.24406 12.2696 12.5965
2 4.05809 8.19189 9.94886
2 2.61992 2.26858 1.06647
2 11.5926 7.30375 6.72319
2 4.76443 9.28882 12.5302
2 2.25089 4.96436 8.44536
2 6.50881 9.43654 11.107
2 3.51883 7.68137 7.69083
2 6.53503 10.7938 1.44458
2 10.0286 3.22332 6.69901
2 1.22454 3.46719 7.27611
2 1.3243 7.88612 5.75524
2 11.342 6.33804 3.94536
2 2.14879 6.04344 6.04828
2 5.39863 3.78843 11.3422
2 2.36464 6.76567 10.0129
2 5.08206 1.43771 1.60619
2 12.582 6.01004 9.52879
2 4.29991 11.368 0.375125
2 10.8337 8.25763 9.0453
2 4.25877 9.56375 2.61571
2 3.13729 4.73022 11.1851
2 7.10813 0.911523 3.18836
2 2.44707 9.99238 9.0489
2 8.85883 9.43267 1.25458
2 10.4709 5.01908 4.04163
2 4.11246 4.34959 3.35231
2 3.20318 3.74731 6.00725
2 6.50454 1.59243 10.1679
2 5.04415 6.93017 5.82905
2 4.45259 11.9555 9.5824
2 5.96846 3.54596 2.88672
2 5.70316 5.14967 0.668743
2 3.50273 8.54636 4.70373
2 9.19256 9.38193 10.9538
2 1.24616 11.9282 12.9296
2 1.37168 1.2692 5.80211
2 12.2173 2.91656 12.182
2 10.2992 10.1382 5.98034
2 2.72937 11.7341 1.82789
2 10.2524 10.3103 8.58959
2 11.5053 0.67563 11.3062
2 0.0491713 12.4843 4.08872
2 9.04855 2.91798 4.25331
2 8.0849 9.94518 8.74399
2 1.80604 10.3673 3.2025
2 5.27676 6.93034 11.7104
2 1.09858 1.96058 2.4362
2 2.48674 0.588185 8.08311
2 12.0415 9.92796 1.30909
2 9.41758 0.39928 7.76669
2 1.76036 11.9824 10.1635
2 1.73411 3.11852 4.22734
2 9.01243 2.17601 11.5828
2 10.8426 10.3936 3.12987
2 12.0773 10.4079 11.0068
2 9.96058 12.1522 4.08432
2 10.4015 2.73623 9.65138
2 3.72702 11.1626 4.71564
1 11.832 7.07465 8.38667
1 4.92923 10.02 1.12523
1 2.05778 5.39663 10.0504
1 5.82668 1.76679 2.89733
1 2.75783 8.13995 8.92058
1 7.88463 10.6545 0.699457
1 9.73934 4.07874 5.28186
1 3.5909 0.731045 0.614742
1 2.08272 4.70272 6.98492
1 4.82908 1.34282 10.4338
1 11.8265 7.4778 5.02667
1 5.21726 8.41467 10.9015
1 10.1931 2.07819 8.11477
1 4.78827 5.33499 11.8433
1 3.05062 7.26204 5.67644
1 7.64653 9.85611 10.4076
1 10.7064 9.32011 1.92985
1 2.972 11.5176 9.14038
1 3.36693 3.4997 4.50169
1 7.80693 1.09298 11.2122
1 3.24337 10.0233 3.71522
1 10.7578 9.53351 10.1165
1 8.64157 1.14328 3.71953
1 5.26599 4.66106 2.15373
1 1.16414 2.86952 0.955772
1 8.98252 10.7177 7.50297
1 1.26626 11.2104 1.69204
1 1.00444 1.83846 7.34765
1 0.796176 11.7544 11.254
1 0.75823 1.83212 4.32434
1 10.8851 2.31521 11.4362
1 11.2774 10.9925 4.68931
96
 Atoms. Timestep: 16000
2 9.97287 8.68673 5.378
2 3.96375 2.00145 12.9159
2 0.379947 0.908653 7.4601
2 6.95933 11.9241 11.1983
2 1.12566 9.09781 9.30826
2 8.41487 12.3526 13.1412
2 3.58988 9.35207 10.6531
2 2.01453 1.16131 13.0968
2 10.9885 7.45304 7.94193
2 4.91417 9.60477 12.3906
2 3.56922 4.5486 7.6208
2 6.1987 8.95811 10.9242
2 2.19515 9.31952 7.27379
2 6.97343 10.9044 1.00639
2 10.9687 1.94084 6.81463
2 4.92939 11.2795 9.54811
2 12.4317 7.66557 5.83665
2 9.91745 5.7513 5.9714
2 1.91314 7.12989 6.60617
2 5.36725 3.51039 11.187
2 3.02435 7.33609 9.45091
2 5.23523 1.48306 1.47362
2 0.481573 6.0053 9.31404
2 4.55841 11.6003 0.196882
2 10.7853 8.50193 10.4112
2 5.36897 8.3836 0.993404
2 3.55935 4.86813 10.5529
2 7.69312 1.15922 2.91411
2 2.90525 10.7679 8.69388
2 9.65501 10.0855 1.17755
2 10.0312 4.52328 5.29506
2 4.18604 4.40493 2.67329
2 3.10526 4.88371 4.76224
2 6.23347 1.32602 12.1039
2 4.33032 9.69041 2.30678
2 4.53821 0.966648 10.2469
2 6.41722 3.62625 1.80425
2 4.5833 5.30601 0.0920454
2 2.30751 9.25608 4.44741
2 9.07583 10.3764 11.8334
2 0.773411 11.4119 12.84
2 2.02482 0.884394 5.15407
2 12.1177 2.34264 12.2009
2 9.07876 10.4164 6.79216
2 2.71139 11.4479 0.936006
2 10.0142 10.5198 9.20612
2 11.4769 12.6931 10.9695
2 2.69118 0.885607 2.2545
2 8.72568 2.29949 4.69655
2 7.80753 10.1858 8.86398
2 1.66468 9.71941 2.54835
2 4.7912 6.85423 11.3989
2 0.511063 1.13336 2.25887
2 3.19816 0.315871 7.69251
2 12.0743 10.5616 1.88495
2 9.76625 0.477028 7.92861
2 2.01521 12.2845 10.5842
2 1.86366 2.40972 3.74946
2 8.97931 1.33196 11.1067
2 9.67462 9.91588 3.49363
2 11.9168 10.5251 10.4489
2 9.20747 11.918 4.74181
2 11.5197 1.83407 9.50999
2 2.96478 11.7828 3.65994
1 12.0278 7.90966 9.0342
1 5.40378 10.3402 1.03542
1 2.23367 5.90436 9.9415
1 6.71454 1.9991 1.83271
1 2.85178 9.27782 9.26014
1 8.47327 10.8554 0.482722
1 9.93335 2.87047 5.809
1 3.5808 0.643572 0.955697
1 3.08365 5.46579 6.13948
1 4.7563 1.92564 11.4352
1 10.8226 7.30946 6.39212
1 4.73773 8.44824 11.1495
1 11.2736 0.936053 8.27212
1 4.92951 4.96654 11.4476
1 1.4346 8.75467 5.84845
1 7.64577 10.4573 10.7975
1 10.6417 10.2389 2.24173
1 3.56305 12.3893 9.51157
1 2.65226 3.77711 3.36558
1 7.77247 0.785793 11.875
1 3.02448 10.1918 3.36357
1 10.4071 10.016 10.8799
1 8.64629 0.904896 4.22617
1 5.38257 4.89484 1.50925
1 0.623042 1.43105 0.660881
1 8.97476 11.3362 8.09179
1 1.23123 10.2757 1.08093
1 1.90198 0.15273 6.71262
1 0.614124 11.5027 11.1394
1 1.64016 0.908642 3.55653
1 10.5871 1.52164 11.312
1 9.09109 10.3654 4.96322
96
 Atoms. Timestep: 18000
2 10.8732 10.3828 5.23096
2 3.55083 0.959455 11.991
2 12.1595 2.5704 7.59273
2 6.24152 0.605095 10.4071
2 0.999723 8.09794 9.02829
2 7.94743 11.3216 11.6195
2 3.66648 7.71625 9.80902
2 9.76376 2.42609 1.58086
2 11.8306 8.00292 7.46075
2 4.95513 8.70469 11.9381
2 2.001 4.51508 7.16769
2 5.64408 9.26788 9.32805
2 2.30906 5.4864 3.82316
2 6.76495 9.99668 0.540626
2 10.404 3.68155 7.32921
2 4.73061 11.6402 8.28302
2 0.889724 7.95966 5.33863
2 10.9308 5.69561 7.57221
2 2.87876 6.60503 5.53818
2 4.85576 3.19365 10.9147
2 1.59154 7.33017 10.9567
2 7.80042 1.17896 0.732393
2 0.640497 5.67598 9.56353
2 4.64701 11.5426 0.841485
2 10.0229 7.76759 9.20182
2 8.52003 7.95674 0.469442
2 3.03722 4.8147 11.2143
2 8.49018 2.91315 3.31172
2 2.21704 10.059 9.3771
2 9.52725 10.3867 1.2457
2 11.2158 4.80164 4.64401
2 4.19243 3.2963 2.89677
2 3.76174 4.73648 5.25246
2 6.29868 2.10135 11.7249
2 4.61741 9.80784 2.40793
2 4.10806 1.33085 9.73299
2 6.42826 2.85824 2.14254
2 5.7099 4.57687 12.583
2 2.86778 8.79665 4.45614
2 9.21067 8.80883 11.3119
2 0.856416 9.5174 12.4312
2 1.10479 2.2531 5.35498
2 11.8229 1.22099 0.497403
2 9.04626 11.6449 6.51662
2 2.4989 10.6151 0.572039
2 9.78803 10.0912 8.72164
2 11.6614 12.0102 10.7585
2 2.95444 0.685989 2.53586
2 9.08693 4.15914 5.51842
2 7.78762 12.1271 9.25947
2 2.4004 9.65531 2.67062
2 5.76119 6.24426 10.7762
2 0.353746 1.41026 3.2836
2 2.61255 0.983279 7.6494
2 12.1645 9.91587 2.53106
2 10.1629 0.911059 8.81423
2 1.85194 11.7483 10.3808
2 2.23095 2.56833 3.67257
2 9.32049 1.26657 11.3657
2 9.93767 11.4031 3.67592
2 11.1818 9.47404 10.986
2 9.69455 1.73158 5.10174
2 10.9003 2.33711 10.4873
2 3.34494 11.693 4.50914
1 11.6565 6.68539 8.85482
1 5.23826 9.91414 0.808417
1 1.49295 5.65577 11.224
1 8.02344 2.52141 1.76179
1 2.25028 8.3408 9.88847
1 8.35163 9.51147 12.5319
1 10.4718 4.74274 6.08016
1 3.08065 12.1802 0.897955
1 3.21329 5.50241 6.55458
1 4.82765 1.64229 11.1216
1 11.5203 8.96711 6.05811
1 5.51027 8.09107 10.4286
1 10.8977 2.48425 8.8027
1 4.66786 4.97621 11.219
1 1.95237 6.92038 4.5152
1 6.26543 11.0084 9.55889
1 10.2334 10.2612 2.64643
1 3.05121 11.8572 8.96287
1 3.29748 3.74728 4.04382
1 7.80744 0.957707 11.7649
1 3.62291 10.1924 3.89683
1 9.82284 9.24287 10.0077
1 8.49264 2.77976 4.94271
1 5.40004 4.13058 1.76426
1 11.0881 1.58299 1.95323
1 9.2246 11.6372 8.19072
1 1.27312 9.32787 1.3479
1 1.67047 2.5021 7.16558
1 0.532153 10.5904 11.0682
1 2.04742 1.04006 4.07602
1 10.9792 1.17694 11.7499
1 10.0908 11.8724 5.41747
96
 Atoms. Timestep: 20000
2 11.4659 9.98202 5.52895
2 4.15676 1.97753 12.3676
2 12.0755 0.270192 7.30609
2 7.31305 0.577219 10.0259
2 1.75621 9.88722 11.6579
2 8.35392 11.684 12.1131
2 4.11689 9.16313 10.2832
2 9.38383 2.71211 2.35118
2 11.3663 7.72922 6.66362
2 4.87574 10.0638 12.133
2 2.68779 1.65808 5.8555
2 5.94609 10.2456 10.3856
2 3.79 6.1327 4.72708
2 7.0918 10.2756 0.953273
2 10.5694 3.01302 7.2171
2 4.51238 11.6476 8.80914
2 0.937238 7.54504 4.80742
2 11.0199 5.21868 6.41854
2 1.91755 4.55158 4.27762
2 4.47471 4.48342 11.12
2 11.9337 6.27676 12.312
2 7.83238 2.49945 12.8627
2 0.800637 6.75198 9.53242
2 4.76911 11.9067 1.62676
2 10.8957 8.35996 8.82122
2 7.25993 8.9955 11.5348
2 2.68172 6.03463 11.954
2 7.88617 2.14712 3.58942
2 2.17586 10.6751 9.74276
2 8.97301 9.21175 1.1959
2 0.956717 3.67515 6.15953
2 5.53719 5.22888 3.47329
2 3.98174 3.6949 5.2991
2 6.49637 2.08082 11.1118
2 4.35812 9.47937 2.16768
2 3.97157 1.82575 10.1386
2 6.11643 3.04612 1.63667
2 5.23848 5.48452 0.617548
2 2.92276 7.83922 3.77074
2 9.25114 9.35485 11.0451
2 12.3178 10.7224 0.53906
2 1.53759 11.8831 4.90001
2 11.1955 2.36431 0.40744
2 9.01913 10.2708 6.49838
2 12.2561 10.9978 2.64335
2 9.36732 10.4323 9.27493
2 11.1139 0.603623 11.402
2 2.23452 1.25105 2.02236
2 10.2351 3.00494 4.71728
2 6.94893 11.4591 8.23794
2 2.01867 8.93802 2.25258
2 5.2084 7.33574 10.9951
2 11.8051 1.47556 3.12127
2 2.86048 0.52621 7.73368
2 11.1867 8.55546 2.08242
2 9.58365 0.603976 8.0409
2 1.69156 0.250088 10.9642
2 6.1305 5.21893 5.93233
2 9.37742 2.10595 10.9227
2 9.2483 9.54723 3.97428
2 11.8312 10.0465 10.6257
2 9.72984 11.9605 5.15504
2 11.4917 1.77904 9.49789
2 2.62533 11.1974 3.25556
1 11.441 6.99497 8.19872
1 5.36446 10.2444 1.17324
1 1.41584 6.74383 11.1227
1 7.75122 2.37648 1.88386
1 2.50599 9.04212 10.5727
1 8.33417 10.0753 12.3323
1 11.2023 3.84697 5.95754
1 3.67506 0.974448 0.996989
1 2.46249 3.32302 5.1773
1 4.93867 2.53488 11.1736
1 12.0803 8.57331 5.58317
1 5.50668 8.92383 11.1473
1 10.9799 1.33153 8.0564
1 4.37217 5.97133 11.9047
1 2.30068 6.22825 4.20645
1 5.86613 11.6507 9.63191
1 9.74844 8.99527 2.48608
1 2.86112 0.388178 9.52279
1 4.94175 4.81551 4.99095
1 7.91907 1.43249 11.4185
1 3.12787 9.4139 3.29329
1 10.5406 9.58233 9.8864
1 9.21655 1.6409 4.60067
1 5.353 4.43317 1.88512
1 10.8745 2.53066 2.02412
1 8.50633 11.3317 8.17435
1 0.48578 9.42683 1.86455
1 1.6855 0.46358 6.51167
1 0.334648 11.2804 11.5909
1 1.41638 0.470227 3.29086
1 10.8967 2.26683 11.0406
1 9.87643 10.4114 5.24645
96
 Atoms. Timestep: 22000
2 8.93651 8.04207 5.83749
2 5.2075 2.99412 1.64972
2 0.748866 2.3775 8.56631
2 6.78259 11.5957 10.6824
2 1.40124 8.31971 8.14964
2 7.72441 11.2642 12.5567
2 2.11102 6.42408 12.3606
2 11.1556 3.13857 3.50808
2 11.723 6.98094 6.76581
2 4.89699 8.43359 12.3337
2 1.58672 3.96033 6.94717
2 6.54716 9.06952 10.0475
2 2.37531 6.27395 2.65715
2 6.79866 9.83335 1.80247
2 10.8167 2.90626 7.40157
2 4.91436 11.2446 9.07489
2 10.8585 7.28749 4.3425
2 9.26808 5.75804 6.18802
2 0.894991 6.37363 4.91111
2 5.51813 4.00975 9.70903
2 11.5353 4.7657 12.2571
2 7.97404 1.79803 12.2927
2 0.838457 5.82748 9.52787
2 5.15115 11.598 1.13846
2 10.9049 8.24441 9.17907
2 7.73557 8.3657 12.5234
2 2.94052 5.58896 10.5185
2 8.08627 3.20365 2.9964
2 3.00984 10.2907 7.69728
2 9.54379 10.6115 1.5456
2 11.29 4.84417 5.52637
2 3.64246 4.6536 1.44933
2 1.72362 4.40856 3.81237
2 7.29765 1.88177 10.2046
2 4.2456 9.60981 2.76707
2 4.35363 1.84812 9.81972
2 6.97136 4.37784 1.19044
2 4.78369 5.24146 11.7896
2 3.03247 8.849 5.72793
2 9.75231 9.31785 11.9804
2 1.48856 9.74872 1.01018
2 2.46006 2.38402 5.96547
2 11.3399 2.23908 0.969227
2 9.00012 10.1298 6.55286
2 0.911888 0.32892 2.4258
2 9.26026 10.267 9.28933
2 0.601662 11.7183 12.0434
2 4.14369 1.76123 3.42044
2 9.0147 3.65729 5.50199
2 7.08802 11.062 8.34638
2 0.887403 8.73349 3.28162
2 6.18614 6.60813 10.8176
2 1.78667 1.78332 3.67382
2 2.63086 1.0086 8.59936
2 11.3401 10.5619 3.30439
2 9.96243 0.596493 7.56211
2 2.5594 10.1828 10.2867
2 5.08592 6.14237 2.09378
2 9.58444 11.8861 11.456
2 8.85185 10.0175 3.90338
2 11.9534 10.2296 10.5961
2 9.63533 1.16525 3.00033
2 11.2 1.54492 10.4103
2 2.9796 11.4387 4.85284
1 11.9311 7.11555 8.51287
1 5.13487 9.9541 1.44447
1 1.1012 5.45359 11.2167
1 7.94044 2.98704 1.39682
1 2.16 9.15783 6.98183
1 8.26237 9.95458 0.947881
1 10.0476 4.5026 6.66074
1 5.16118 1.37842 1.86145
1 1.10779 4.64045 5.21525
1 5.97787 2.47351 9.7887
1 10.1819 7.17827 5.69406
1 6.54782 8.03915 11.424
1 10.8527 1.67071 8.74549
1 5.07103 5.29497 10.3295
1 0.889216 7.16294 3.45796
1 6.16171 10.533 9.62414
1 9.96736 11.2571 3.11738
1 3.15184 11.352 9.24112
1 2.93194 4.95674 2.81178
1 7.96212 12.3128 11.3575
1 3.79148 9.77157 4.61222
1 10.4194 9.51094 10.3814
1 9.12641 2.66765 4.10368
1 5.29228 4.51039 1.08575
1 12.0374 2.18586 2.43131
1 8.74788 11.0926 7.99169
1 1.09213 10.1546 2.59585
1 2.1282 2.62299 7.85101
1 1.51279 10.0007 11.6325
1 2.89878 1.45939 4.5352
1 11.1585 1.08974 12.0639
1 8.50594 9.33956 5.20558
96
 Atoms. Timestep: 24000
2 9.90291 7.76796 5.69629
2 4.38728 1.82161 0.784646