96
 Atoms. Timestep: 0
2 0 7.95642 4.74695
2 4.63304 0 11.358
2 0 4.63304 4.74695
2 7.95642 0 11.358
2 0 4.63304 8.47514
2 7.95642 0 1.8641
2 0 7.95642 8.47514
2 4.63304 0 1.8641
2 10.7421 8.43088 6.61105
2 4.15858 10.7421 0
2 1.84736 4.15858 6.61105
2 8.43088 1.84736 0
2 1.84736 8.43088 6.61105
2 8.43088 10.7421 0
2 10.7421 4.15858 6.61105
2 4.15858 1.84736 0
2 10.5201 6.29473 5.04003
2 6.29473 10.5201 11.6511
2 2.06934 6.29473 5.04003
2 6.29473 2.06934 11.6511
2 2.06934 6.29473 8.18207
2 6.29473 2.06934 1.57102
2 10.5201 6.29473 8.18207
2 6.29473 10.5201 1.57102
2 10.1594 8.65935 9.20274
2 3.93011 10.1594 2.59169
2 2.43004 3.93011 9.20274
2 8.65935 2.43004 2.59169
2 2.43004 8.65935 9.20274
2 8.65935 10.1594 2.59169
2 10.1594 3.93011 9.20274
2 3.93011 2.43004 2.59169
2 2.43004 3.93011 4.01936
2 8.65935 2.43004 10.6304
2 10.1594 8.65935 4.01936
2 3.93011 10.1594 10.6304
2 10.1594 3.93011 4.01936
2 3.93011 2.43004 10.6304
2 2.43004 8.65935 4.01936
2 8.65935 10.1594 10.6304
2 0 10.703 0
2 1.88643 0 6.61105
2 0 1.88643 0
2 10.703 0 6.61105
2 0 0 1.872
2 0 0 8.48305
2 0 0 11.3501
2 0 0 4.73905
2 11.2706 2.31295 2.18973
2 10.2765 11.2706 8.80078
2 1.31887 10.2765 2.18973
2 2.31295 1.31887 8.80078
2 1.31887 2.31295 2.18973
2 2.31295 11.2706 8.80078
2 11.2706 10.2765 2.18973
2 10.2765 1.31887 8.80078
2 1.31887 10.2765 11.0324
2 2.31295 1.31887 4.42131
2 11.2706 2.31295 11.0324
2 10.2765 11.2706 4.42131
2 11.2706 10.2765 11.0324
2 10.2765 1.31887 4.42131
2 1.31887 2.31295 11.0324
2 2.31295 11.2706 4.42131
1 11.0086 7.83654 8.10972
1 4.75292 11.0086 1.49867
1 1.5809 4.75292 8.10972
1 7.83654 1.5809 1.49867
1 1.5809 7.83654 8.10972
1 7.83654 11.0086 1.49867
1 11.0086 4.75292 8.10972
1 4.75292 1.5809 1.49867
1 1.5809 4.75292 5.11238
1 7.83654 1.5809 11.7234
1 11.0086 7.83654 5.11238
1 4.75292 11.0086 11.7234
1 11.0086 4.75292 5.11238
1 4.75292 1.5809 11.7234
1 1.5809 7.83654 5.11238
1 7.83654 11.0086 11.7234
1 10.1088 10.1088 3.30552
1 2.48067 10.1088 9.91657
1 2.48067 2.48067 3.30552
1 10.1088 2.48067 9.91657
1 2.48067 10.1088 3.30552
1 10.1088 10.1088 9.91657
1 10.1088 2.48067 3.30552
1 2.48067 2.48067 9.91657
1 0 1.60471 1.57853
1 10.9848 0 8.18958
1 0 10.9848 1.57853
1 1.60471 0 8.18958
1 0 10.9848 11.6436
1 1.60471 0 5.03252
1 0 1.60471 11.6436
1 10.9848 0 5.03252
96
 Atoms. Timestep: 2000
2 12.2519 7.79027 4.31778
2 4.29085 -0.0968976 12.2645
2 12.6343 5.27403 4.62351
2 8.4282 11.8592 11.7242
2 12.6587 4.25172 8.30188
2 8.43566 11.9114 2.96675
2 -0.214881 7.88416 8.5295
2 5.15562 12.2256 1.62539
2 11.2157 7.7926 6.61772
2 4.37309 10.9041 13.2154
2 1.80975 4.99538 6.07416
2 8.03065 0.673487 0.379495
2 1.3512 8.47341 6.30402
2 7.83458 9.65769 12.6591
2 11.396 4.48514 6.0934
2 4.44044 1.6371 0.802354
2 10.2457 6.57116 4.89925
2 6.38878 10.9304 11.4657
2 1.49956 6.82339 3.98784
2 6.44122 0.79223 12.3653
2 1.67832 6.28956 7.76765
2 6.28504 1.05662 2.70005
2 10.7774 6.02446 8.4514
2 6.25477 9.87059 1.25383
2 10.9592 9.0442 9.68418
2 3.85886 10.5995 2.50434
2 2.55697 3.83345 8.73077
2 8.85396 1.62702 2.35135
2 2.03602 8.90401 9.32443
2 8.47768 9.59545 2.42537
2 10.0742 3.45803 8.82285
2 3.64779 1.63569 3.17993
2 1.92562 4.14313 3.71687
2 9.11099 0.879554 11.1271
2 9.67955 8.84106 4.33503
2 3.81253 10.2793 11.3228
2 10.2084 3.7579 4.00467
2 3.80182 2.03739 11.1056
2 1.59008 9.48855 3.34569
2 9.38038 10.2292 10.9139
2 12.3904 11.2173 13.179
2 2.27045 12.5977 6.55451
2 -0.0150173 2.56387 13.3114
2 10.9032 12.3834 6.88019
2 11.9943 0.370744 1.07634
2 0.356124 0.479022 8.13353
2 12.5682 0.521326 11.5294
2 0.067349 -0.0643189 5.28505
2 11.7359 1.94103 2.43246
2 10.7307 11.7761 9.37216
2 0.590158 11.6326 2.10067
2 2.85184 1.30718 8.71883
2 1.28915 2.26453 2.16162
2 2.10118 11.402 9.42254
2 10.3043 11.229 1.75184
2 10.6329 1.55818 8.65111
2 1.52552 10.7685 11.4421
2 2.22135 1.7379 4.61203
2 11.3744 2.71179 10.4794
2 10.5784 11.406 3.98364
2 12.3846 10.6846 10.7044
2 10.7921 0.848559 4.0756
2 1.18266 2.98596 10.8325
2 2.38312 11.9779 4.04852
1 11.1447 7.8075 8.30248
1 4.85662 10.6304 1.1168
1 1.59564 4.6692 7.70359
1 7.6856 0.36267 2.02623
1 1.46589 7.9436 7.87573
1 7.7375 9.03703 0.969183
1 11.1337 4.47707 8.01945
1 4.71893 1.11702 2.17372
1 1.32329 5.30304 4.67884
1 7.94748 0.525133 12.2278
1 10.8258 8.06465 5.12973
1 4.95008 11.2948 11.7481
1 10.8028 5.17496 4.84628
1 4.79809 1.34076 12.6374
1 1.07399 8.54618 4.51701
1 7.96634 10.3953 11.3256
1 9.41981 10.7021 3.31999
1 2.4705 10.1382 10.4512
1 2.39856 2.61622 3.33871
1 9.99567 2.3854 9.97043
1 1.96809 10.9776 2.87634
1 10.8749 10.5539 10.0281
1 10.078 2.12332 3.1501
1 2.47006 2.58642 9.88748
1 0.0504509 1.77766 1.19281
1 11.4209 -0.0451446 8.52256
1 11.8377 11.6502 1.31986
1 2.00735 12.5796 8.19431
1 0.110085 11.6196 11.7772
1 1.7778 0.296671 5.23619
1 12.581 2.39462 11.6362
1 11.2871 12.4607 5.10435
96
 Atoms. Timestep: 4000
2 10.7147 8.17823 6.34756
2 4.2527 0.438257 11.2567
2 11.8696 4.79188 4.4382
2 7.69746 12.2491 12.1008
2 0.144326 4.11208 7.98004
2 8.48452 12.1498 2.61796
2 10.8768 6.23172 8.89557
2 4.78203 11.4383 2.14017
2 8.8924 8.56128 7.41619
2 4.2046 10.2296 12.5797
2 2.42401 4.23585 6.3527
2 8.09332 0.770337 0.413895
2 0.416802 8.31894 6.9377
2 8.00288 10.5749 13.1666
2 0.766056 3.06151 12.2238
2 5.0068 0.90962 0.0960599
2 11.8741 7.51069 4.03069
2 5.98663 10.7522 11.3268
2 12.3164 8.88401 4.94269
2 7.08865 1.86828 11.6179
2 1.16379 6.09725 8.04368
2 6.52698 0.750633 2.15178
2 9.17741 7.11 10.241
2 5.84485 9.42662 1.25784
2 10.8096 9.28129 9.59931
2 3.60839 8.72569 1.6747
2 2.65642 4.22953 9.19195
2 8.9701 2.45422 2.33719
2 1.41874 9.09508 8.92291
2 8.94639 9.65921 2.13332
2 10.6629 3.83134 9.25498
2 4.19473 1.25132 2.36396
2 2.95661 3.79336 3.56904
2 9.65895 2.29263 11.6578
2 9.08216 9.45241 4.9764
2 3.42053 10.4956 10.7789
2 11.422 4.56551 2.45399
2 4.35273 2.85123 10.7357
2 1.50311 6.37274 2.40731
2 8.52957 10.5142 10.2118
2 0.201019 10.9283 0.461542
2 2.08828 0.0863082 6.2959
2 1.24454 4.98043 0.596493
2 10.6717 1.15025 6.39137
2 0.249432 11.4597 3.47936
2 0.17859 0.603145 7.71401
2 0.222197 12.6145 11.3312
2 12.2792 0.48887 5.04508
2 12.1675 2.82335 1.25704
2 10.2558 11.6488 8.19076
2 1.36436 9.22946 2.2153
2 2.30455 1.74613 8.71756
2 1.9652 2.39649 1.52365
2 2.77095 11.4234 8.69372
2 11.2578 10.4851 2.64451
2 10.3599 1.62099 9.13474
2 0.838405 10.7724 10.8978
2 1.94194 1.14952 3.90673
2 12.0134 2.56744 10.6141
2 10.3219 11.6565 4.17398
2 10.8138 11.5446 10.8856
2 10.6583 2.15153 3.50793
2 2.25543 2.05683 11.1321
2 3.06915 7.4902 4.37669
1 9.88711 7.74968 9.01303
1 4.33368 10.0342 1.10485
1 1.65739 4.7136 7.85381
1 8.15153 1.02561 1.9716
1 1.40543 7.77988 8.13373
1 7.45848 10.0625 1.22041
1 11.473 4.66025 8.36686
1 5.11342 0.179341 1.59601
1 2.97646 4.89615 5.15985
1 8.40836 1.25259 12.2654
1 8.73517 8.02965 5.90793
1 4.44244 11.4469 11.3697
1 12.595 5.96793 3.02709
1 5.31636 1.89452 11.9141
1 11.8841 9.43373 6.70036
1 7.74114 10.2728 11.4939
1 9.93963 9.81742 3.38441
1 2.07729 10.5612 9.91719
1 2.4619 2.27299 3.01512
1 10.3042 2.67835 10.2298
1 2.62362 7.79998 2.39097
1 9.96145 10.826 9.67375
1 10.575 3.18725 2.37236
1 3.35871 2.63912 9.62171
1 1.00615 3.42099 0.506974
1 10.7612 0.489547 8.03113
1 0.335807 10.6191 1.97478
1 1.95664 0.123349 8.0059
1 12.3673 11.402 12.2612
1 1.02775 12.7457 4.6978
1 0.358762 1.61493 11.291
1 10.6911 0.479735 4.68261
96
 Atoms. Timestep: 6000
2 11.3119 8.17831 5.7511
2 4.63464 12.6036 11.6632
2 1.39734 5.64348 3.98068
2 7.60031 0.343486 12.7306
2 12.5555 4.75274 8.20245
2 9.88824 0.569257 2.22002
2 10.0422 5.80648 8.32435
2 3.87569 0.0841656 2.18146
2 9.40544 6.85028 6.06351
2 4.50912 10.1592 12.4767
2 1.484 5.3592 6.79151
2 8.20155 2.34823 -0.20302
2 0.799026 8.41833 6.84862
2 7.91522 10.662 13.3596
2 0.925816 2.4866 0.0324465
2 4.5437 1.48573 0.410758
2 11.3817 6.82162 3.79512
2 6.73945 11.4819 11.0849
2 0.391284 9.79284 4.51825
2 5.69803 1.67424 11.8138
2 1.40241 6.82834 9.17251
2 6.83473 1.03159 1.48851
2 9.58895 8.36967 9.02783
2 6.32286 8.61396 0.151464
2 9.78019 9.3948 10.8614
2 3.01563 8.19697 0.319265
2 1.99699 4.31281 9.72187
2 10.0273 2.52177 1.83037
2 1.96041 9.85885 8.9048
2 8.88532 9.29414 1.82526
2 10.1573 2.73124 8.98713
2 4.81762 1.71426 3.40873
2 2.71812 3.27233 5.2557
2 9.14413 2.15034 11.0334
2 9.66139 8.79494 4.00368
2 3.79586 11.164 10.1631
2 11.8897 4.79857 3.44131
2 3.07981 1.94799 11.6888
2 0.467277 6.75078 1.5807
2 9.3453 11.7919 11.5328
2 0.186614 10.5214 0.589226
2 1.29339 12.4074 5.45148
2 0.301108 4.73353 1.87791
2 10.3805 0.021658 5.654
2 1.37403 11.1663 3.00354
2 12.5669 12.1928 7.1835
2 0.13648 0.220718 12.9314
2 12.4135 12.9617 3.37013
2 -0.119065 2.80808 3.09585
2 11.3713 11.0723 9.05284
2 1.23348 8.76323 2.48579
2 1.88057 1.51082 7.10662
2 2.56007 2.81981 2.5117
2 1.85364 12.4906 8.92172
2 11.5706 9.89487 2.53623
2 9.95432 0.37703 8.94421
2 0.590919 11.5436 10.955
2 2.19125 1.01375 4.40888
2 11.2753 1.54032 11.8007
2 9.97779 11.2122 3.86737
2 11.9397 10.6124 11.8387
2 10.7199 1.77709 4.15381
2 0.925335 2.4592 10.4878
2 2.38539 0.221338 2.58566
1 9.07123 6.95745 7.91573
1 4.74923 8.72884 13.5894
1 1.35602 5.13879 8.55047
1 8.73561 1.54555 1.32301
1 1.05189 8.44591 8.59337
1 7.7802 9.48646 0.618306
1 10.9017 4.21245 8.68067
1 5.28961 0.967225 2.1026
1 2.17614 4.77559 5.20294
1 7.44994 1.93279 11.9311
1 10.2326 7.40988 4.83852
1 5.11527 11.066 10.9053
1 -0.17481 6.06957 2.88318
1 4.25298 1.04366 12.3968
1 -0.391 8.81787 5.88587
1 7.92732 11.7573 12.0739
1 9.8108 9.90932 2.90146
1 2.09608 11.0934 9.70105
1 3.05665 2.26964 3.87879
1 10.3071 1.6567 10.0747
1 1.94404 7.75082 1.53549
1 10.6838 10.8172 10.8325
1 11.1391 3.14172 3.44361
1 2.72403 3.10184 10.5993
1 1.04106 3.42458 1.86606
1 10.6016 12.3639 7.57305
1 0.265049 9.97008 2.46109
1 1.28442 -0.103705 7.22525
1 0.0776858 11.4228 12.8585
1 1.15704 12.528 3.74503
1 0.113737 1.59814 12.2207
1 10.6623 0.145794 3.69769
96
 Atoms. Timestep: 8000
2 2.01301 9.11877 4.52297
2 5.48348 0.588159 11.6024
2 2.46819 4.93857 3.49243
2 9.19973 12.4958 12.4844
2 7.81241 5.75833 8.0969
2 6.51318 3.51002 6.70509
2 9.95271 4.95019 6.45727
2 6.35288 0.613491 2.18691
2 11.7497 5.57887 4.6252
2 4.76069 11.1416 0.764445
2 3.61323 4.18979 6.1776
2 8.66742 0.493745 1.31104
2 3.1391 8.8653 6.47074
2 8.03441 11.0666 0.517215
2 12.2589 1.3837 12.8808
2 4.85391 2.54942 0.965621
2 12.2031 6.31934 2.50043
2 6.89574 11.4768 11.8642
2 1.72426 11.1762 5.30875
2 5.65706 4.90266 5.09887
2 3.1459 6.21162 7.50857
2 5.52404 2.00368 3.99252
2 0.885071 4.42032 5.54156
2 3.65907 10.4834 3.9333
2 5.98331 10.0505 8.58365
2 3.37944 9.0464 2.19554
2 4.26001 3.4966 8.90438
2 7.77382 3.17321 4.40531
2 3.60596 8.44306 8.97274
2 8.01265 10.5632 3.23416
2 9.93411 4.19416 9.44214
2 3.65553 0.989522 2.52877
2 2.61275 2.71326 4.20909
2 9.80072 2.40289 11.697
2 10.5054 8.15314 3.18687
2 4.54689 10.4214 11.0365
2 8.75892 2.87028 1.46384
2 4.68509 3.2612 11.7443
2 1.73657 7.30946 1.95793
2 8.29006 11.0039 10.1746
2 12.4683 10.0378 12.9461
2 0.576848 0.392927 6.92114
2 0.507057 4.24561 1.61822
2 9.82941 0.457538 5.95672
2 12.4473 11.6329 2.01202
2 0.663929 10.471 7.95797
2 0.527287 12.1659 11.712
2 11.8159 0.396197 4.07127
2 10.8123 2.77149 1.00176
2 8.56833 12.0273 7.87711
2 0.33741 8.84977 2.38966
2 0.939773 0.796326 9.22083
2 1.33724 1.89266 1.61039
2 1.75729 10.9161 9.62442
2 10.4199 9.73285 1.77464
2 10.3034 0.860401 9.33151
2 2.51559 9.90339 11.5886
2 1.84558 0.71921 4.84521
2 11.8166 2.38027 9.96042
2 9.74238 11.6143 3.73453
2 7.97328 9.8461 7.39531
2 9.97597 1.84032 3.39452
2 1.8724 2.47685 9.74987
2 1.17398 12.2971 3.01324
1 11.2514 4.56877 5.69652
1 4.5099 10.2352 2.23611
1 4.55857 3.85553 7.26266
1 6.27941 3.43268 4.9553
1 3.26078 7.79661 7.59771
1 7.53086 11.6781 1.92109
1 9.09008 5.04592 7.91583
1 5.08197 1.94824 2.43057
1 2.52107 4.16254 5.19679
1 9.53723 1.7417 0.384898
1 11.1676 6.86045 3.68155
1 5.14608 11.4641 12.1137
1 1.28241 5.60973 2.56392
1 5.41472 2.06251 12.5127
1 2.892 10.172 5.25797
1 8.46867 11.2178 11.7979
1 9.66102 9.96229 3.15503
1 3.16249 9.73762 10.0615
1 2.22952 1.15357 3.27883
1 10.3095 2.46448 10.0417
1 1.8489 8.63491 2.91092
1 7.33285 10.9987 8.53717
1 8.74535 3.30307 3.1499
1 3.63561 3.10835 10.3067
1 12.4873 2.9092 1.02064
1 9.83292 0.588566 7.94599
1 11.7979 9.31342 1.26513
1 1.2907 11.9558 8.30894
1 0.812597 10.7125 11.8083
1 0.577115 12.4469 5.50463
1 0.474765 1.45501 10.9251
1 10.3034 0.489261 4.22028
96
 Atoms. Timestep: 10000
2 2.85626 9.34343 3.78671
2 6.02149 0.55854 12.3365
2 2.13565 4.74602 3.3994
2 8.8855 2.0544 12.1091
2 7.97381 3.31039 5.83107
2 3.46288 2.69318 6.44038
2 9.80907 5.39538 7.12838
2 5.74151 11.8041 2.36637
2 12.1323 7.27514 6.4937
2 5.81399 10.7627 0.181851
2 1.38669 3.64123 7.18979
2 7.04614 3.58299 12.886
2 5.20004 10.1718 5.85642
2 8.15819 11.7352 1.03631
2 11.4052 2.52727 0.33805
2 4.67861 1.53032 1.03887
2 12.273 7.02298 3.46755
2 8.18414 11.5225 11.6127
2 2.13613 11.0185 5.81274
2 5.67076 3.4723 6.20449
2 4.96696 8.06826 6.921
2 3.9004 2.28188 3.35826
2 11.4859 4.69621 6.30024
2 3.38655 12.5567 3.82786
2 7.74263 9.26889 6.65005
2 3.73095 9.64906 1.68728
2 3.57956 2.54307 8.63222
2 6.22624 1.98308 4.95895
2 6.3142 10.6607 7.91043
2 8.61908 9.64474 2.53814
2 9.07493 3.32798 8.66076
2 2.01157 1.58918 2.72146
2 0.567856 3.58998 4.45766
2 9.16808 3.61656 10.8838
2 9.88062 7.15732 2.58323
2 5.86917 10.8366 10.4728
2 7.06245 11.45 3.79766
2 4.95176 2.65309 11.924
2 1.81234 7.7042 2.65913
2 10.7216 9.14163 6.62678
2 0.877831 11.2147 12.5711
2 1.03222 11.0258 7.46347
2 12.0917 5.17557 1.99055
2 8.87979 0.453564 6.09216
2 3.05463 12.6147 0.905545
2 10.9762 0.226506 6.90104
2 1.19085 1.24612 11.7666
2 12.0304 10.8196 5.27178
2 9.84623 3.80389 1.04912
2 9.61428 10.6322 7.59213
2 1.04778 10.0493 2.10291
2 1.35823 11.8543 10.6191
2 12.1563 2.92024 2.59326
2 3.69475 11.2121 8.73334
2 10.9578 9.20227 1.17059
2 9.73848 0.621734 9.29792
2 3.84546 0.37498 10.9538
2 1.60343 1.26218 6.7502
2 11.4622 2.59331 10.5449
2 10.7591 9.23156 3.65724
2 9.25478 7.33038 6.48663
2 7.64824 1.09294 3.12868
2 5.35499 0.759011 9.52697
2 12.4627 1.46607 5.0389
1 10.7095 6.35864 6.29175
1 4.77856 10.803 1.17473
1 2.42026 2.53447 7.57205
1 4.74339 2.62536 4.95708
1 6.10116 9.44395 6.84834
1 7.25362 10.9851 2.37917
1 8.80206 4.26436 7.46905
1 3.61786 0.905396 2.2587
1 0.578368 4.11985 6.10177
1 8.58566 3.81561 12.668
1 10.8935 6.44867 3.79321
1 6.43242 11.3657 11.8948
1 1.1083 5.84411 2.56291
1 5.9606 2.32992 13.0499
1 3.59187 10.7451 4.95971
1 9.12751 0.450595 12.8903
1 9.71387 8.85041 2.18164
1 5.36619 11.5175 8.98921
1 0.60925 2.17088 3.51148
1 9.73325 2.33131 10.0404
1 2.40153 9.03338 2.13645
1 9.09792 8.51312 7.76133
1 7.60228 0.348445 5.03519
1 4.40864 1.95772 10.2986
1 11.3233 3.80873 1.42336
1 9.6753 12.2355 7.55476
1 12.1235 10.3103 1.08063
1 1.73872 11.1589 9.04235
1 2.30895 12.2211 11.8856
1 0.548344 12.0592 6.17219
1 0.00506209 2.58318 11.8894
1 10.3239 9.76747 5.13046
96
 Atoms. Timestep: 12000
2 2.03807 7.86717 4.40083
2 5.32822 0.424664 12.1003
2 2.54711 4.58141 0.765027
2 9.71376 0.799962 12.783
2 3.09413 5.55993 9.23068
2 4.57501 2.01385 4.93039
2 0.970656 6.74421 9.07512
2 6.64399 10.8398 2.29881
2 12.3097 9.56284 9.12467
2 5.76256 10.2341 0.569736
2 7.05347 3.41455 6.1296
2 6.89313 4.79074 10.7824
2 3.79469 9.05188 6.39257
2 9.02001 10.7853 2.24177
2 11.1336 2.60346 12.7073
2 5.10554 3.1201 12.8054
2 0.409184 5.90361 2.71898
2 7.61627 11.9655 12.698
2 1.32011 9.43193 7.01228
2 0.635245 2.04164 5.20372
2 3.92671 7.54557 8.65375
2 4.39379 1.21526 1.87155
2 11.5892 6.57025 7.20105
2 5.04895 11.6008 3.28689
2 6.67308 8.47246 8.46559
2 3.39068 9.20429 1.81672
2 4.37377 2.89201 7.36681
2 6.35304 2.02284 2.83077
2 5.12606 10.0809 8.62159
2 8.27911 8.99114 3.41339
2 11.274 9.2864 7.37758
2 0.400106 12.1068 5.18032
2 0.28024 4.27841 4.53533
2 8.18374 3.45113 9.96938
2 10.2679 6.47341 4.27429
2 5.43359 11.1213 10.6988
2 7.89217 11.4804 4.6542
2 4.92521 3.54724 9.80085
2 1.88513 7.18163 1.66218
2 8.9654 9.28891 7.1257
2 0.594375 10.4757 0.569828
2 2.20059 8.58985 10.2196
2 12.2931 4.95389 0.323312
2 8.5747 2.42736 4.64971
2 3.19826 0.326476 12.6188
2 10.6696 3.56626 6.42986
2 0.207037 0.140109 11.5686
2 10.7001 10.8955 5.62309
2 9.24541 4.64273 12.0981
2 8.86121 6.37835 10.1268
2 0.665856 8.99901 1.92555
2 1.81062 10.3948 11.4297
2 10.778 4.78832 2.185
2 2.43586 11.5463 9.63761
2 10.8894 9.2063 1.94413
2 8.88618 2.37764 7.97918
2 2.54796 4.09191 8.54987
2 11.412 1.58717 6.40773
2 10.4457 1.56358 10.6084
2 10.5319 8.82986 4.48884
2 10.2951 7.9413 9.52469
2 8.88454 0.526637 2.37959
2 3.50629 1.07074 9.18945
2 0.932149 11.4761 2.76166
1 11.6383 8.08945 8.52585
1 4.95493 10.6963 1.93113
1 5.34056 2.84697 5.99819
1 4.76705 1.15626 3.39595
1 4.73475 8.68422 7.86058
1 7.91948 10.5268 3.23684
1 2.56646 7.06824 9.30487
1 4.40043 1.59469 0.264005
1 12.1052 3.22158 5.80654
1 8.46693 5.03117 10.753
1 11.6889 5.52049 3.75296
1 6.32431 10.9678 12.0978
1 1.22287 5.61183 1.28605
1 5.34549 4.29726 11.2811
1 2.43965 9.02214 5.59201
1 9.01292 11.8745 0.997716
1 9.81383 8.06942 3.31413
1 4.29111 11.4576 9.33307
1 0.893184 0.65842 3.79738
1 9.04601 2.01137 9.65196
1 2.30366 8.37273 2.72953
1 8.25728 8.4175 8.8987
1 7.95521 1.49794 3.02932
1 3.93263 2.60232 8.92184
1 10.6317 4.1874 0.462237
1 8.80755 3.3021 6.48834
1 12.0673 10.4655 1.94962
1 1.2568 10.3505 9.79855
1 1.6608 11.64 12.3657
1 11.2771 12.2402 6.31587
1 11.3429 1.26068 11.8701
1 10.2905 9.49353 6.05254
96
 Atoms. Timestep: 14000
2 3.49968 7.27855 4.76312
2 5.61879 1.52359 11.0891
2 2.48644 4.28513 1.36406
2 9.88773 1.23535 0.668308
2 3.74777 7.95442 11.3961
2 4.71259 3.0566 4.73919
2 1.29932 6.84309 9.42417
2 6.03633 8.50269 0.573633
2 11.3855 8.97641 9.64291
2 5.51255 10.4729 0.876802
2 6.06926 1.41025 6.53592
2 6.21349 5.50203 10.7743
2 5.63347 4.85669 6.22397
2 9.82138 10.5732 1.50619
2 11.3789 4.15739 11.6574
2 4.94716 3.72744 12.085
2 12.2621 5.91127 2.3918
2 7.52517 11.8209 12.8614
2 3.45702 5.56647 10.5043
2 0.647789 1.49878 3.95466
2 3.75571 7.32084 8.711
2 5.3088 3.60714 2.03157
2 10.4897 6.39348 10.5081
2 4.01953 8.8329 12.3728
2 6.86316 8.32915 7.95498
2 4.41444 8.68598 2.76608
2 3.79627 2.69247 7.12824
2 7.16651 2.61715 4.42166
2 4.5696 9.50127 8.02619
2 8.57643 8.14191 1.72873
2 9.7695 9.78693 4.00572
2 10.7063 10.8906 9.50092
2 10.8804 4.06738 3.52121
2 7.51872 4.26792 9.81437
2 10.547 7.46584 3.10552
2 5.46195 11.1712 10.267
2 8.99183 11.8165 5.46301
2 4.31476 3.41524 10.195
2 2.5572 7.11043 2.15272
2 9.82973 8.78059 6.26268
2 1.34087 11.9141 2.22343
2 1.5195 8.60124 10.4634
2 0.518287 6.23658 12.6154
2 7.84053 11.5322 8.15054
2 2.88387 1.72331 0.650079
2 0.737399 2.35861 1.53875
2 11.9054 1.87909 11.8616
2 10.2614 11.2168 6.97708
2 7.96685 7.00682 11.2816
2 8.36636 6.94837 8.69235
2 1.63499 8.75812 3.34788
2 1.5505 11.5116 11.1151
2 10.1769 5.66861 1.19389
2 2.28456 10.1506 8.83076
2 11.8297 9.75162 2.37815
2 7.76418 1.86174 9.24542
2 5.52212 2.20473 8.32863
2 9.71916 1.9394 8.5046
2 9.36487 2.76566 10.694
2 11.9496 10.8047 4.54013
2 10.1768 7.4351 8.07317
2 8.48443 1.00116 2.67472
2 4.05015 0.872784 9.18076
2 3.36594 0.978488 5.07436
1 11.4044 7.27672 9.32945
1 5.07023 9.27189 1.48685
1 4.45894 1.9422 5.91243
1 5.86788 3.13135 3.35889
1 5.1048 7.84538 7.98422
1 7.40929 7.68486 0.555668
1 2.71577 7.28147 10.2696
1 3.94658 3.24364 1.01827
1 11.5392 2.56944 2.79605
1 7.42788 6.06527 9.75802
1 10.388 5.75099 2.73904
1 6.00111 11.6554 12.0978
1 1.88014 5.7906 1.37584
1 4.92887 4.82387 10.8163
1 4.91309 6.54677 5.6893
1 8.90477 11.8954 1.32839
1 10.0695 9.18757 2.49055
1 4.13421 10.7402 9.19948
1 1.81205 0.549423 4.60625
1 8.78824 3.22833 9.38788
1 2.98322 7.90666 3.38505
1 8.72287 8.30922 7.47792
1 8.55099 1.57394 4.32179
1 4.01543 2.6975 8.83109
1 10.858 5.81982 11.9748
1 6.75435 1.04121 7.82858
1 1.23125 10.4623 2.9962
1 0.753266 10.3005 9.96776
1 1.46727 0.850604 12.6449
1 9.73805 11.7778 8.32303
1 10.4708 2.39648 11.8133
1 10.0735 10.5006 5.51705
96
 Atoms. Timestep: 16000
2 4.85008 9.06443 3.71248
2 6.19849 1.52872 1.02936
2 2.48788 4.86184 2.44232
2 9.95395 0.987963 11.8945
2 7.15487 8.43135 8.65423
2 5.58633 3.35579 5.38517
2 1.94812 6.42187 10.0512
2 6.39885 7.83717 12.1521
2 11.8361 9.39616 10.5441
2 5.41447 9.80312 12.5537
2 6.14333 1.25182 6.13305
2 6.0472 4.1261 11.8538
2 5.03765 9.5582 6.4977
2 8.21347 9.42482 11.1046
2 9.28547 4.4634 11.856
2 3.6698 4.03941 12.2751
2 11.6407 5.98855 3.94181
2 6.91944 11.0305 11.2211
2 4.02212 4.9013 9.92691
2 11.644 2.69292 5.15206
2 4.5994 7.42646 8.20935
2 4.37048 2.90418 2.31585
2 10.9743 6.30017 11.1871
2 4.36285 7.88271 10.2672
2 10.1786 10.485 11.145
2 3.86342 8.11518 1.07222
2 3.84227 1.53132 6.90393
2 6.68595 0.668312 3.40666
2 4.56974 9.94336 8.4611
2 9.20907 8.24431 12.6235
2 9.65281 8.78633 3.73378
2 10.0955 9.9588 8.3034
2 10.7388 4.86504 5.28696
2 7.39411 4.09111 9.91269
2 9.69196 6.992 2.85017
2 4.29603 11.2662 10.8379
2 8.8546 10.52 4.36306
2 4.79659 2.5128 9.72615
2 3.03268 6.83433 2.58684
2 10.9015 8.85192 6.22914
2 1.0514 1.01 2.76923
2 11.9604 10.616 12.555
2 11.7947 6.00673 1.72842
2 8.77875 11.7366 7.32901
2 1.67928 3.25236 0.849361
2 9.78103 3.9102 7.73739
2 11.2183 3.32817 11.8034
2 10.6135 11.2304 6.22621
2 8.29701 6.28757 11.0332
2 8.81765 8.09783 8.3846
2 2.43499 9.90182 2.3265
2 0.847672 1.29404 10.2567
2 9.98036 4.78784 2.0205
2 1.86927 10.8848 9.70493
2 11.4291 9.75687 1.64524
2 8.21181 2.45969 7.71889
2 6.03737 0.621489 8.27761
2 10.9617 1.19939 8.72629
2 9.27349 2.73187 10.1109
2 11.4998 10.0974 4.06479
2 11.4184 7.43459 8.86252
2 7.80304 10.376 1.18861
2 3.42019 11.8884 8.89414
2 2.73988 2.37903 5.18462
1 0.628502 7.49281 10.2583
1 4.86595 8.27342 11.8562
1 4.32569 2.07969 5.65681
1 5.76505 1.98704 2.65485
1 5.67169 8.70814 7.99447
1 7.99077 7.79249 11.6598
1 3.68624 6.47979 9.59802
1 3.24206 3.50094 1.63305
1 11.2898 3.5225 6.51567
1 7.66668 4.73577 11.4319
1 9.65124 5.62685 3.71787
1 5.44151 11.452 11.9962
1 1.61891 5.90915 2.94593
1 4.61408 3.8039 11.0922
1 5.2613 10.0217 4.99236
1 8.55617 10.9999 11.7774
1 10.1404 8.54217 2.00674
1 3.22844 10.5601 9.85387
1 1.30582 1.86393 4.43447
1 8.60755 3.49163 9.06262
1 3.4712 8.46757 2.46506
1 10.5497 8.51349 8.00412
1 7.61404 10.9098 3.10579
1 4.59669 1.51555 8.42572
1 10.4846 4.98373 12.627
1 7.45003 1.16574 7.28282
1 0.786453 10.6169 2.86362
1 11.8982 10.9464 10.7189
1 0.901582 1.78036 1.22514
1 10.1746 11.634 7.64601
1 10.8953 2.14437 10.6478
1 10.1558 10.1334 5.12594
96
 Atoms. Timestep: 18000
2 3.62161 7.4783 5.67281
2 4.96489 10.9439 2.60993
2 2.87348 6.62375 11.2711
2 10.3138 1.29558 11.4562
2 6.82224 8.08839 11.0698
2 11.1675 2.14595 8.54295
2 2.50877 7.31829 8.45947
2 7.17072 7.48614 1.09009
2 11.3329 9.42964 9.27051
2 5.40426 9.07966 1.73663
2 6.48342 3.41252 4.98334
2 6.54658 5.64852 11.0728
2 4.93908 7.9848 7.99912
2 9.914 9.09684 11.651
2 9.02046 4.60267 10.6506
2 4.18236 4.39853 11.9929
2 0.808925 5.8438 1.31105
2 7.29779 11.4145 1.99867
2 3.3029 5.54283 9.5021
2 11.3015 1.85803 3.95776
2 5.19315 6.45397 9.79599
2 5.84415 3.93696 2.66852
2 10.3892 6.29769 9.96785
2 4.03166 7.1614 1.33781
2 0.57864 10.8847 11.163
2 4.95016 7.56147 3.12637
2 3.20671 2.18802 8.3132
2 8.21047 2.38078 3.14537
2 5.21845 9.36416 10.6357
2 8.62969 8.92527 1.60453
2 9.71015 8.64454 4.28286
2 8.2257 9.92052 8.51288
2 11.6595 4.6432 3.19669
2 8.59427 4.80824 8.67758
2 10.2144 6.62768 2.72933
2 4.84209 10.9965 0.205827
2 8.69118 11.4024 4.16534
2 4.86647 3.82944 9.2908
2 2.44244 6.847 2.92207
2 8.12714 9.7422 6.23508
2 2.56167 0.943607 3.62953
2 2.04286 10.7346 1.58038
2 0.936514 5.53213 9.89608
2 7.20834 12.0799 7.43356
2 3.47646 1.86993 1.66732
2 10.5932 2.94673 6.17808
2 11.0653 3.15111 10.4944
2 10.8776 10.7746 5.32608
2 8.67277 7.00602 10.8741
2 7.03927 7.1892 6.39003
2 1.94214 8.74427 0.812847
2 1.15105 11.811 8.3932
2 10.5057 4.3633 12.2726
2 2.65899 10.0074 10.4126
2 10.9803 8.69984 2.32717
2 8.42875 3.41046 6.38973
2 5.41198 2.11208 7.7554
2 8.42225 0.611699 10.2533
2 10.7541 4.54908 8.87875
2 0.826884 10.4143 3.31267
2 9.02109 7.82575 8.782
2 9.8748 11.6465 1.5943
2 5.05545 12.1316 9.88087
2 1.18418 1.92485 5.9461
1 10.5972 7.88472 9.50342
1 5.68279 7.58268 1.56066
1 1.34043 2.19883 7.85309
1 7.06203 3.34014 3.43265
1 5.89204 8.18883 9.56494
1 8.40551 8.40167 11.7403
1 2.085 6.61501 9.69453
1 4.6356 3.51986 1.56878
1 11.0317 3.34307 4.66769
1 7.87113 5.82002 9.85319
1 10.5999 5.42864 1.75438
1 6.00458 10.6261 1.54932
1 2.38283 6.97048 1.05203
1 4.82426 5.04655 10.6313
1 3.41221 8.14016 7.34346
1 10.2288 10.8689 11.7085
1 9.31763 8.14631 2.95937
1 4.32699 10.5379 10.6254
1 1.00882 11.7365 4.50879
1 9.65114 3.65648 7.55758
1 3.40668 7.39921 3.9806
1 8.06846 8.61593 7.43258
1 8.71543 0.775208 2.79588
1 4.67966 2.19199 9.0214
1 10.9239 4.95085 10.5664
1 6.98618 2.54739 6.63612
1 0.900247 9.58387 1.91073
1 1.25028 10.6672 9.45321
1 3.40104 11.7162 2.24281
1 7.33495 11.2528 8.9008
1 10.0041 1.74339 9.97893
1 9.31552 10.3099 5.23196
96
 Atoms. Timestep: 20000
2 4.0171 7.55396 6.00078
2 4.33168 0.722873 1.97029
2 2.52192 6.71347 11.9032
2 9.7105 0.874361 9.84744
2 7.63975 8.5209 10.5527
2 11.9671 1.48926 8.42632
2 2.88072 5.97173 8.62978
2 7.01089 8.67195 1.35189
2 0.470823 8.51806 9.74428
2 5.1429 9.46343 2.55088
2 5.64216 2.78474 5.15052
2 6.64028 4.62413 12.2065
2 4.90894 8.02274 8.46366
2 9.63261 10.0328 11.7769
2 7.63574 4.67882 2.79793
2 4.63985 4.83197 12.2771
2 2.6889 4.86573 1.48598
2 6.60582 11.7783 1.19703
2 3.73202 5.71752 10.5435
2 11.7927 2.5988 4.80416
2 6.2057 6.38675 10.2822
2 5.22835 3.53266 2.22257
2 11.7758 5.89821 7.71519
2 4.52112 6.58695 1.51483
2 11.5497 11.3619 11.2952
2 5.3719 7.46415 3.50545
2 3.0737 0.948331 8.78356
2 7.60276 2.26777 2.66007
2 5.68659 9.82704 9.85822
2 9.23133 8.82468 1.4609
2 10.2071 10.0075 3.61525
2 8.83439 9.1431 7.18423
2 10.0165 4.22456 3.22873
2 2.19723 7.98087 7.6493
2 11.2968 7.21567 2.47913
2 4.41796 10.9141 12.1956
2 8.81268 11.885 3.18956
2 4.94133 3.46885 9.65932
2 2.59479 6.86285 3.4255
2 9.77263 6.10964 9.00096
2 2.19504 0.368838 3.52229
2 1.49223 0.922901 1.3181
2 0.829203 5.15273 9.79811
2 7.17785 11.3596 6.82546
2 3.08656 2.73491 2.50676
2 8.89904 3.98193 5.58153
2 9.986 3.38314 8.2203
2 9.34072 11.1171 5.76088
2 6.82016 6.48439 2.14575
2 7.21398 7.50109 8.48383
2 1.69391 8.04878 1.09913
2 1.24614 10.6609 8.97673
2 9.22376 5.40997 1.28849
2 2.48273 10.555 10.7007
2 11.9196 9.56493 2.01307
2 6.90343 3.17906 6.70651
2 5.0028 1.57131 7.31261
2 9.46785 12.0725 7.80035
2 8.27575 5.85783 7.50195
2 11.2096 12.0547 3.64349
2 10.4355 8.00905 8.19728
2 8.92947 0.611345 12.4545
2 4.76316 0.840016 9.93276
2 1.65288 0.673359 6.15101
1 0.579214 7.77501 7.92154
1 5.82057 7.76741 2.06239
1 1.55672 12.0554 7.8142
1 6.27372 3.38894 3.30452
1 6.21289 8.25761 9.3359
1 8.15317 9.19454 12.2076
1 2.1814 5.82299 10.4156
1 3.94436 3.9672 1.29942
1 10.3396 3.57314 4.74482
1 7.66799 5.20089 1.2791
1 10.4245 5.71757 2.30374
1 4.99068 10.8867 1.52226
1 2.58468 6.44014 1.71604
1 5.40246 5.13033 10.8653
1 3.73519 7.10289 7.67156
1 9.99862 11.7133 11.3912
1 10.4902 8.7768 2.51919
1 4.46557 10.9086 10.3693
1 1.16115 1.22569 4.62343
1 8.50692 4.06896 7.1569
1 4.06806 6.86151 4.49472
1 8.80735 7.25103 7.90626
1 8.18701 12.3728 1.77037
1 4.23198 1.99514 8.82097
1 10.7354 4.90724 9.12439
1 6.10729 1.61042 6.38984
1 1.59941 9.5824 0.900988
1 0.905607 9.9647 10.6174
1 2.76427 1.16738 2.16937
1 8.61979 10.8806 7.28423
1 10.3315 1.85293 8.44195
1 9.73337 11.3059 4.35009
96
 Atoms. Timestep: 22000
2 2.83817 8.31544 5.58227
2 3.47591 11.4399 2.39271
2 1.35911 6.45013 11.6299
2 11.8447 11.5932 10.5004
2 6.94809 8.83914 11.2788
2 9.59194 11.9103 9.5423
2 2.93184 7.0275 8.81509
2 6.22422 8.84099 1.2693
2 1.55515 9.63271 9.5273
2 7.17786 8.62157 4.1271
2 6.8467 2.60189 4.85601
2 6.3845 5.47734 11.5056
2 5.23653 7.59398 7.7614
2 8.67353 9.91733 11.348
2 5.82741 3.81272 2.34002
2 4.4925 4.65547 12.2221
2 1.67623 5.0642 1.46627
2 7.50553 11.127 1.36933
2 3.29528 5.78395 10.6225
2 11.466 2.79978 4.86919
2 5.70703 6.90774 9.75617
2 6.3861 1.33787 2.59853
2 11.1412 10.8846 7.72239
2 3.27012 9.28625 12.1294
2 11.0737 9.98306 12.1436
2 4.36729 7.97827 3.14945
2 4.30875 2.23981 8.16543
2 8.43668 2.18542 2.81015
2 4.80987 8.9208 9.97646
2 9.00155 8.76054 1.02038
2 10.0274 8.58405 3.59456
2 8.71986 7.94424 6.31475
2 10.2932 4.59575 3.32363
2 1.93671 8.98278 7.4804
2 9.6684 6.01408 1.4092
2 5.41644 10.6403 12.3874
2 9.63175 10.7859 2.43363
2 5.30538 3.82664 9.812
2 2.39976 7.05564 2.73247
2 2.02107 3.49723 8.25819
2 1.94387 0.476044 4.19656
2 1.18706 11.3845 1.92606
2 1.31511 4.96521 9.74037
2 7.10478 9.24099 7.15509
2 3.34703 2.43278 2.06982
2 10.0066 4.86271 6.16151
2 10.4763 3.83815 8.22018
2 9.0178 10.2428 5.26979
2 5.96372 6.51939 2.37789
2 7.68695 8.1243 8.97928
2 1.55877 8.34478 1.43519
2 2.49734 0.499096 8.88212
2 8.09915 4.28858 1.56771
2 1.89244 10.1713 11.67
2 11.2174 7.40884 1.63619
2 7.71845 3.49153 6.45117
2 6.2321 1.6757 7.8371
2 8.82165 0.874438 6.78818
2 8.80546 6.30531 7.92619
2 11.4278 10.9817 5.53903
2 10.4331 8.68192 8.52697
2 9.33976 0.747093 11.8659
2 4.86528 2.2008 10.9122
2 2.29865 1.81777 6.24461
1 11.841 9.52366 8.17972
1 5.90451 7.9908 3.06895
1 2.65711 2.17922 7.92949
1 6.91039 2.81721 3.33606
1 6.10509 8.58832 9.28853
1 7.69521 9.52363 12.6492
1 1.96625 6.42418 10.0957
1 3.23352 3.97118 1.35811
1 10.8539 4.30241 4.94027
1 6.65283 5.25043 1.54828
1 9.8885 4.54599 1.79556
1 5.41597 11.4076 1.93353
1 1.28471 6.56821 1.50431
1 4.95566 5.35679 10.5226
1 3.25404 7.9773 7.45885
1 9.9854 11.0466 11.0469
1 9.54506 7.58617 2.15129
1 4.87263 9.06523 11.8901
1 0.902006 1.22265 5.42879
1 9.05479 4.64718 7.5561
1 2.8503 8.17991 3.8702
1 9.10344 7.77273 7.9762
1 8.81044 0.803144 1.70947
1 5.45334 2.42132 9.10281
1 12.0769 4.25965 8.34878
1 7.2812 1.99565 6.301
1 1.09662 10.012 0.993866
1 2.0263 10.9935 10.2942
1 2.34163 1.14629 2.47016
1 7.86611 9.25399 5.64106
1 9.532 11.4031 8.06044
1 10.2041 10.385 4.11307
96
 Atoms. Timestep: 24000
2 6.33091 6.59701 0.907391
2 3.88671 0.83707 1.6974