LAMMPS (2 Aug 2023 - Update 3)
units metal
boundary p p p
atom_style full
pair_style tersoff
neighbor 2.0 bin
neigh_modify delay 1




read_data SiO.data
Reading data file ...
  orthogonal box = (0 0 0) to (12.589463 12.589463 13.222096)
  1 by 1 by 1 MPI processor grid
WARNING: Atom style in data file atom-ID molecule-ID atom-type q x y z differs from currently defined atom style full (../read_data.cpp:621)
  reading atoms ...
  96 atoms
Finding 1-2 1-3 1-4 neighbors ...
  special bond factors lj:    0        0        0       
  special bond factors coul:  0        0        0       
     0 = max # of 1-2 neighbors
     0 = max # of 1-3 neighbors
     0 = max # of 1-4 neighbors
     1 = max # of special neighbors
  special bonds CPU = 0.000 seconds
  read_data CPU = 0.003 seconds
replicate 1 1 1
Replication is creating a 1x1x1 = 1 times larger system...
  orthogonal box = (0 0 0) to (12.589463 12.589463 13.222096)
  1 by 1 by 1 MPI processor grid
  96 atoms
Finding 1-2 1-3 1-4 neighbors ...
  special bond factors lj:    0        0        0       
  special bond factors coul:  0        0        0       
     0 = max # of 1-2 neighbors
     0 = max # of 1-3 neighbors
     0 = max # of 1-4 neighbors
     1 = max # of special neighbors
  special bonds CPU = 0.000 seconds
  replicate CPU = 0.001 seconds

pair_coeff * *  /root/Desktop/host/job1/SiO.tersoff Si O
Reading tersoff potential file /root/Desktop/host/job1/SiO.tersoff with DATE: 2010-08-16



group Si type 1
32 atoms in group Si
group O type 2
64 atoms in group O
#create_bonds many SiO SiO 1 0.5 10

dump dmp all xyz 2000 dump.lammpstrj



variable apot equal pe
# first number: number of steps to get current temp
# second number: calculate average n number of temp read above.
# third number: temp record (this must be larger than the one above )

variable atemp equal temp
fix temp_info all ave/time 10 200 2000 v_atemp file temperature.dat

#The cutoff used for pairwise computation (any pair style) and the
#associated neighbor list is the maximum cutoff that any compute
#can use. Atoms don't know any info about their neighbors
#further away than that.

# compute coord number
compute coor12 Si coord/atom cutoff 2.5 group O
compute coor11 Si coord/atom cutoff 2.5 group Si
compute coor22 O coord/atom cutoff 2.0 group O

compute sumcoor12 all reduce ave c_coor12
compute sumcoor11 all reduce ave c_coor11
compute sumcoor22 all reduce ave c_coor22


fix 12coord all ave/time  10 200 2000 c_sumcoor12 file Si-O_coord_number.dat
fix 11coord all ave/time  10 200 2000  c_sumcoor11 file Si-Si_coord_number.dat
fix 22coord all ave/time  10 200 2000  c_sumcoor22 file O-O_coord_number.dat




# unit cell information
variable avol equal vol
variable alx equal lx
variable aly equal ly
variable alz equal lz
fix cell_info all ave/time 10 200 2000 v_avol v_alx v_aly v_alz file cell_volume.dat


fix potential_info all ave/time 10 200 2000 v_apot file potential-energy.dat
thermo 1000



velocity all create 6000 882712 mom yes rot no dist gaussian
fix npt1 all npt temp 6000 5000 0.1 iso 0 0  1
timestep 0.001
#run 500
run 80000
Neighbor list info ...
  update: every = 1 steps, delay = 1 steps, check = yes
  max neighbors/atom: 2000, page size: 100000
  master list distance cutoff = 4.8
  ghost atom cutoff = 4.8
  binsize = 2.4, bins = 6 6 6
  4 neighbor lists, perpetual/occasional/extra = 1 3 0
  (1) pair tersoff, perpetual
      attributes: full, newton on
      pair build: full/bin
      stencil: full/bin/3d
      bin: standard
  (2) compute coord/atom, occasional, copy from (1)
      attributes: full, newton on
      pair build: copy
      stencil: none
      bin: none
  (3) compute coord/atom, occasional, copy from (1)
      attributes: full, newton on
      pair build: copy
      stencil: none
      bin: none
  (4) compute coord/atom, occasional, copy from (1)
      attributes: full, newton on
      pair build: copy
      stencil: none
      bin: none
Per MPI rank memory allocation (min/avg/max) = 6.021 | 6.021 | 6.021 Mbytes
   Step          Temp          E_pair         E_mol          TotEng         Press          Volume    
         0   6000          -638.06385      0             -564.38556      73800.118      2095.6304    
      1000   5268.7015     -554.70445      0             -490.0063      -6380.4565      2258.0676    
      2000   6002.7551     -580.14726      0             -506.43515      43637.44       2219.923     
      3000   5679.2073     -553.30898      0             -483.56994      1187.8908      2189.3754    
      4000   6064.8713     -534.72847      0             -460.25358      8492.6381      2125.3855    
      5000   6213.2774     -544.89651      0             -468.59924     -214.77011      2129.695     
      6000   5308.2807     -544.97006      0             -479.78589     -32851.371      2278.8009    
      7000   5791.0242     -528.60445      0             -457.49233      5396.5852      2067.3992    
      8000   5522.678      -524.09767      0             -456.28076      15839.014      2010.7713    
      9000   4647.1632     -532.51755      0             -475.45171     -34529.912      1848.9294    
     10000   5221.3354     -517.43873      0             -453.32222     -16289.394      1957.4935    
     11000   6409.6997     -531.16838      0             -452.4591       8368.0543      1664.7206    
     12000   5302.9872     -526.31258      0             -461.19341     -7152.199       1915.8677    
     13000   5911.0392     -546.85176      0             -474.26589      57356.787      1595.6146    
     14000   6784.0306     -547.1755       0             -463.86955     -21402.51       1683.7037    
     15000   5619.4249     -528.48869      0             -459.48377     -21842.932      1755.994     
     16000   5515.2194     -538.09033      0             -470.36501     -23175.607      1602.1519    
     17000   5424.1061     -543.3153       0             -476.70883     -58387.597      1713.7608    
     18000   5433.1717     -545.46144      0             -478.74365     -15816.337      1508.8357    
     19000   5927.3122     -553.48234      0             -480.69664      49.331257      1596.22      
     20000   5836.4314     -557.05001      0             -485.3803      -33145.942      1611.1779    
     21000   5332.1274     -544.95068      0             -479.47368      56721.625      1639.2225    
     22000   6615.6294     -545.95234      0             -464.7143       30548.214      1531.9439    
     23000   5700.4602     -530.8768       0             -460.87678      46389.13       1568.1011    
     24000   5131.9895     -534.55546      0             -471.5361      -16588.983      1711.9249    
     25000   5360.6444     -521.80385      0             -455.97667     -22031.489      1652.5081    
     26000   6086.371      -531.98077      0             -457.24188     -38080.511      1600.9108    
     27000   5632.2572     -522.38279      0             -453.22029     -30229.109      1539.4267    
     28000   5013.4594     -522.04095      0             -460.47711     -32719.971      1719.6005    
     29000   5904.9184     -537.44096      0             -464.93026     -49843.395      1554.221     
     30000   6209.1899     -544.88569      0             -468.63862     -31973.259      1492.8944    
     31000   4795.3515     -540.70838      0             -481.82284      8406.2312      1659.489     
     32000   4267.3442     -543.78873      0             -491.38696     -3007.9997      1509.5967    
     33000   5752.8528     -541.11081      0             -470.46742      44323.863      1614.0356    
     34000   5889.6168     -554.25411      0             -481.9313       18322.898      1582.0214    
     35000   5910.2656     -533.3459       0             -460.76953      55877.988      1517.7107    
     36000   5606.6367     -541.15552      0             -472.30763     -37766.368      1430.8557    
     37000   5313.5435     -558.59242      0             -493.34363     -826.32348      1331.9236    
     38000   5378.3575     -542.76864      0             -476.72395      25396.126      1374.788     
     39000   4888.5715     -542.36135      0             -482.33109     -65703.662      1485.8548    
     40000   5613.4449     -538.9148       0             -469.9833      -23479.419      1418.6023    
     41000   5278.7497     -547.91939      0             -483.09786     -21474.999      1508.6862    
     42000   5592.6826     -543.92044      0             -475.2439      -24155.05       1503.9842    
     43000   4963.6537     -542.08572      0             -481.13347     -43390.708      1632.0072    
     44000   5205.6513     -551.68771      0             -487.7638       17287.486      1584.114     
     45000   6277.0685     -546.56651      0             -469.48591      50221.062      1488.3882    
     46000   5127.1212     -549.2826       0             -486.32302     -18350.985      1568.0124    
     47000   5776.0692     -546.56266      0             -475.63418      8738.3867      1666.4495    
     48000   4803.9643     -558.14283      0             -499.15152     -11553.045      1517.9198    
     49000   5740.7439     -553.80807      0             -483.31337      16999.829      1547.4059    
     50000   5526.2263     -549.85673      0             -481.99625      8056.0798      1542.3969    
     51000   4784.933      -544.6011       0             -485.84349      2882.7759      1531.5901    
     52000   4946.7434     -542.84641      0             -482.10182     -46195.046      1650.7277    
     53000   5567.4786     -546.31492      0             -477.94788     -3825.8756      1540.0444    
     54000   5069.331      -550.92653      0             -488.6766      -21741.154      1554.7051    
     55000   4952.5647     -540.44244      0             -479.62636     -24666.204      1593.6253    
     56000   4645.5548     -550.34242      0             -493.29634     -27697.653      1434.3872    
     57000   5406.9251     -556.92468      0             -490.52918      54678.291      1424.4823    
     58000   5268.0104     -555.22797      0             -490.53831     -10869.658      1496.5788    
     59000   5763.9904     -556.76869      0             -485.98854      3000.3748      1462.4476    
     60000   5300.4372     -534.03282      0             -468.94497     -4680.1341      1435.6359    
     61000   6029.8482     -552.53164      0             -478.48683      3352.4005      1512.921     
     62000   5115.0267     -550.61434      0             -487.80327      92436.459      1390.3069    
     63000   5453.029      -555.22188      0             -488.26025      60624.213      1371.5076    
     64000   5467.7176     -539.91958      0             -472.77757      31143.831      1444.3677    
     65000   5831.9963     -552.90126      0             -481.28601      10627.784      1576.6632    
     66000   4728.2276     -547.93889      0             -489.87761     -6097.2524      1599.9823    
     67000   4945.4272     -548.40248      0             -487.67405     -1661.8568      1478.2482    
     68000   4541.7178     -550.49712      0             -494.72612      44592.113      1547.3194    
     69000   4390.752      -544.608        0             -490.69082      46359.308      1508.0261    
     70000   5482.3808     -540.10579      0             -472.78372     -1070.4097      1570.3175    
     71000   5066.7515     -561.9623       0             -499.74404      15942.827      1394.2964    
     72000   4446.1614     -558.31783      0             -503.72024      6951.8411      1461.4768    
     73000   6421.0009     -550.99215      0             -472.1441      -33792.842      1520.5645    
     74000   4881.7302     -555.24446      0             -495.29821     -36644.26       1494.606     
     75000   4131.8921     -553.71551      0             -502.97706      21203.852      1428.7514    
     76000   5454.0526     -559.64564      0             -492.67144      44832.936      1479.4141    
     77000   5266.6674     -564.20582      0             -499.53265      5501.7808      1432.1646    
     78000   4966.2818     -559.08541      0             -498.10089     -45312.486      1448.5522    
     79000   5910.6561     -555.77973      0             -483.19856     -47053.739      1386.4255    
     80000   5468.0401     -555.09063      0             -487.94466     -16821.23       1479.3148    
Loop time of 6.97813 on 1 procs for 80000 steps with 96 atoms

Performance: 990.523 ns/day, 0.024 hours/ns, 11464.385 timesteps/s, 1.101 Matom-step/s
99.2% CPU use with 1 MPI tasks x no OpenMP threads

MPI task timing breakdown:
Section |  min time  |  avg time  |  max time  |%varavg| %total
---------------------------------------------------------------
Pair    | 5.8052     | 5.8052     | 5.8052     |   0.0 | 83.19
Bond    | 0.0025823  | 0.0025823  | 0.0025823  |   0.0 |  0.04
Neigh   | 0.46141    | 0.46141    | 0.46141    |   0.0 |  6.61
Comm    | 0.21433    | 0.21433    | 0.21433    |   0.0 |  3.07
Output  | 0.010235   | 0.010235   | 0.010235   |   0.0 |  0.15
Modify  | 0.44666    | 0.44666    | 0.44666    |   0.0 |  6.40
Other   |            | 0.03775    |            |       |  0.54

Nlocal:             96 ave          96 max          96 min
Histogram: 1 0 0 0 0 0 0 0 0 0
Nghost:            480 ave         480 max         480 min
Histogram: 1 0 0 0 0 0 0 0 0 0
Neighs:              0 ave           0 max           0 min
Histogram: 1 0 0 0 0 0 0 0 0 0
FullNghs:         2848 ave        2848 max        2848 min
Histogram: 1 0 0 0 0 0 0 0 0 0

Total # of neighbors = 2848
Ave neighs/atom = 29.666667
Ave special neighs/atom = 0
Neighbor list builds = 3735
Dangerous builds = 0

fix npt1 all npt temp 5000 4000 0.1 iso 0 0 1
run 80000
Per MPI rank memory allocation (min/avg/max) = 8.549 | 8.549 | 8.549 Mbytes
   Step          Temp          E_pair         E_mol          TotEng         Press          Volume    
     80000   5468.0401     -555.09063      0             -487.94466     -16821.23       1479.3148    
     81000   4901.5114     -550.05446      0             -489.8653       19530.757      1401.3003    
     82000   4682.8847     -555.32755      0             -497.82307      17021.858      1422.6851    
     83000   5075.2518     -558.11122      0             -495.78858      3299.5776      1387.5021    
     84000   4781.9401     -545.76008      0             -487.03923     -42830.994      1343.9672    
     85000   4335.8081     -552.126        0             -498.88352      14147.494      1266.4655    
     86000   4731.3783     -553.8918       0             -495.79183     -43127.745      1393.2202    
     87000   4750.2256     -560.28152      0             -501.95011      17581.684      1417.2706    
     88000   4911.2989     -547.91707      0             -487.60773     -22466.842      1540.0174    
     89000   4784.5913     -555.08243      0             -496.32901      17521.109      1484.5606    
     90000   4508.6152     -558.49864      0             -503.13414      19077.747      1409.8102    
     91000   4736.8662     -558.67971      0             -500.51235      20478.547      1448.1671    
     92000   5478.5446     -551.83361      0             -484.55865      21916.858      1506.1686    
     93000   5257.2087     -555.56185      0             -491.00483      28208.118      1588.6852    
     94000   4553.5685     -553.29302      0             -497.37651     -2790.5153      1600.66      
     95000   4533.9446     -563.34525      0             -507.6697       59736.457      1464.2235    
     96000   5428.5478     -547.97245      0             -481.31143      18555.77       1474.1613    
     97000   4418.4599     -551.67304      0             -497.41562      32531.767      1503.8381    
     98000   4556.5475     -548.22896      0             -492.27587      18738.096      1415.0972    
     99000   4807.321      -558.16858      0             -499.13605      8560.4499      1411.0628    
    100000   4292.4546     -563.11101      0             -510.4009       35419.896      1357.6376    
    101000   4166.5868     -554.54191      0             -503.37742     -13920.85       1429.5433    
    102000   5265.9877     -553.30171      0             -488.63688      8598.7328      1389.2286    
    103000   5486.126      -560.62221      0             -493.25415      25736.191      1322.2244    
    104000   5004.6639     -555.84744      0             -494.3916       1103.4924      1510.3979    
    105000   4616.2695     -567.63197      0             -510.9455       54358.563      1371.5295    
    106000   5417.2944     -566.30518      0             -499.78236      9704.5942      1389.7423    
    107000   5059.6814     -562.9103       0             -500.77886     -8353.5128      1562.456     
    108000   5066.186      -563.14598      0             -500.93467     -17216.78       1464.0651    
    109000   4359.7906     -570.81829      0             -517.28131      11934.559      1535.2574    
    110000   4675.6953     -567.56703      0             -510.15083     -2971.1449      1454.0727    
    111000   4089.2479     -562.78203      0             -512.56724     -2862.0512      1396.5913    
    112000   5070.905      -568.08494      0             -505.81568      10989.583      1455.338     
    113000   4233.5782     -554.99616      0             -503.00903      82297.186      1416.8393    
    114000   3954.4399     -576.49277      0             -527.93338      6459.6834      1365.2231    
    115000   4783.5163     -561.75834      0             -503.01812      21382.998      1448.3741    
    116000   4105.8074     -571.71294      0             -521.2948      -6185.6115      1409.5449    
    117000   4436.7905     -556.57152      0             -502.089       -8839.9051      1466.6015    
    118000   3868.4444     -550.72537      0             -503.22198     -53823.229      1435.461     
    119000   5329.165      -571.37861      0             -505.93799     -14880.989      1438.9887    
    120000   4391.2868     -573.08987      0             -519.16613      27015.553      1391.4197    
    121000   4449.6428     -565.15172      0             -510.51138     -5137.519       1410.8968    
    122000   5681.9772     -571.21155      0             -501.43849     -23162.751      1407.7218    
    123000   4965.1022     -554.10666      0             -493.13662     -35719.706      1502.49      
    124000   4354.0933     -554.87893      0             -501.41191     -45983.193      1541.7062    
    125000   4852.078      -570.99328      0             -511.41115      17666.343      1318.0583    
    126000   4172.1935     -556.93145      0             -505.69811     -14062.373      1376.1096    
    127000   4309.2966     -574.05912      0             -521.14219      2652.6306      1291.8295    
    128000   4189.8715     -556.53478      0             -505.08436     -12169.905      1301.0614    
    129000   4262.4819     -569.03799      0             -516.69593      29844.767      1393.2688    
    130000   4391.4721     -564.18166      0             -510.25564     -5773.2774      1360.868     
    131000   4784.0398     -567.76868      0             -509.02204     -4014.1485      1328.3177    
    132000   4023.8002     -566.5038       0             -517.09268      21355.393      1354.2838    
    133000   4868.9612     -560.80833      0             -501.01888      3714.8951      1299.7226    
    134000   5036.8214     -566.09316      0             -504.24243     -9232.2091      1418.8186    
    135000   4629.7605     -565.06082      0             -508.20869     -30568.373      1479.1011    
    136000   3461.4918     -568.83404      0             -526.32791     -14212.627      1386.5557    
    137000   4321.1125     -559.21049      0             -506.14847     -31406.349      1394.4369    
    138000   4457.3217     -568.95592      0             -514.22129      849.88386      1400.3914    
    139000   4407.7088     -563.08266      0             -508.95725      66597.346      1435.3663    
    140000   4604.6152     -565.51526      0             -508.9719      -1612.8121      1512.1252    
    141000   4564.9572     -559.3997       0             -503.34333     -53570.118      1624.7514    
    142000   4204.526      -560.65798      0             -509.0276      -10689.284      1416.5941    
    143000   4290.8225     -567.1231       0             -514.43302     -4658.8683      1456.1611    
    144000   3734.1211     -566.49446      0             -520.64052     -11679.018      1394.8578    
    145000   3680.1997     -582.94355      0             -537.75175     -11790.588      1379.9192    
    146000   4710.5365     -581.63141      0             -523.78737      13285.296      1326.0772    
    147000   3862.0536     -574.74268      0             -527.31777      29307.508      1326.9133    
    148000   3457.4147     -568.53382      0             -526.07776      18006.049      1340.8001    
    149000   4145.4131     -573.96281      0             -523.05832     -11118.25       1368.6939    
    150000   4752.3037     -573.89683      0             -515.5399       42529.812      1407.2745    
    151000   4600.6033     -572.40425      0             -515.91016     -25179.177      1417.5258    
    152000   4212.2978     -572.94449      0             -521.21867     -15039.503      1498.7259    
    153000   4157.4159     -572.54348      0             -521.49161     -22907.687      1477.6115    
    154000   4242.6659     -576.72479      0             -524.62607      39438.72       1427.6006    
    155000   4106.6266     -568.16619      0             -517.73799     -40134.045      1411.221     
    156000   3481.0411     -571.59589      0             -528.8497      -20895.137      1483.6523    
    157000   3998.9276     -557.49538      0             -508.38969     -22134.542      1438.3646    
    158000   4009.7429     -569.7237       0             -520.48521     -3416.6268      1343.7929    
    159000   4182.559      -579.05875      0             -527.69813     -12115.255      1276.6479    
    160000   3277.0797     -581.14514      0             -540.90354     -8582.1738      1241.7512    
Loop time of 7.22182 on 1 procs for 80000 steps with 96 atoms

Performance: 957.099 ns/day, 0.025 hours/ns, 11077.540 timesteps/s, 1.063 Matom-step/s
98.8% CPU use with 1 MPI tasks x no OpenMP threads

MPI task timing breakdown:
Section |  min time  |  avg time  |  max time  |%varavg| %total
---------------------------------------------------------------
Pair    | 6.0697     | 6.0697     | 6.0697     |   0.0 | 84.05
Bond    | 0.0027307  | 0.0027307  | 0.0027307  |   0.0 |  0.04
Neigh   | 0.43105    | 0.43105    | 0.43105    |   0.0 |  5.97
Comm    | 0.21836    | 0.21836    | 0.21836    |   0.0 |  3.02
Output  | 0.0092588  | 0.0092588  | 0.0092588  |   0.0 |  0.13
Modify  | 0.45342    | 0.45342    | 0.45342    |   0.0 |  6.28
Other   |            | 0.03729    |            |       |  0.52

Nlocal:             96 ave          96 max          96 min
Histogram: 1 0 0 0 0 0 0 0 0 0
Nghost:            565 ave         565 max         565 min
Histogram: 1 0 0 0 0 0 0 0 0 0
Neighs:              0 ave           0 max           0 min
Histogram: 1 0 0 0 0 0 0 0 0 0
FullNghs:         3408 ave        3408 max        3408 min
Histogram: 1 0 0 0 0 0 0 0 0 0

Total # of neighbors = 3408
Ave neighs/atom = 35.5
Ave special neighs/atom = 0
Neighbor list builds = 3300
Dangerous builds = 0

fix npt1 all npt temp 4000 4000 0.1 iso 0 0 1
run 80000
Per MPI rank memory allocation (min/avg/max) = 8.549 | 8.549 | 8.549 Mbytes
   Step          Temp          E_pair         E_mol          TotEng         Press          Volume    
    160000   3277.0797     -581.14514      0             -540.90354     -8582.1738      1241.7512    
    161000   4002.0512     -576.53922      0             -527.39517     -8269.1503      1330.9509    
    162000   4089.0047     -585.273        0             -535.06119     -7382.1008      1310.4255    
    163000   3596.3286     -570.58952      0             -526.42764     -29942.285      1241.2014    
    164000   3699.853      -576.10205      0             -530.66891     -32723.798      1294.1244    
    165000   3518.8346     -580.7056       0             -537.49532     -10182.32       1325.3126    
    166000   4343.6649     -577.71947      0             -524.3805      -45080.68       1333.4267    
    167000   3988.2256     -579.93822      0             -530.96395     -10915.481      1366.7602    
    168000   4264.3819     -580.61902      0             -528.25363      6388.1687      1313.8252    
    169000   3731.528      -564.59261      0             -518.77051     -18982.34       1418.6104    
    170000   3733.3073     -563.05216      0             -517.20822      26718.556      1342.6967    
    171000   4267.7606     -569.07122      0             -516.66434      599.23655      1351.5088    
    172000   3308.078      -572.57389      0             -531.95164     -27236.628      1445.5981    
    173000   4425.6398     -576.81163      0             -522.46604     -310.3436       1364.211     
    174000   3757.7056     -577.83473      0             -531.69118     -46742.653      1434.426     
    175000   4365.0422     -576.5758       0             -522.97434     -48714.781      1431.0622    
    176000   3747.0049     -567.52233      0             -521.51018     -18643.327      1500.0904    
    177000   4813.2191     -566.9315       0             -507.82654     -22519.977      1459.0466    
    178000   3497.9758     -570.46818      0             -527.51404     -5768.8859      1460.5336    
    179000   3624.5384     -569.37925      0             -524.87096      2591.3601      1477.7611    
    180000   4535.323      -573.64774      0             -517.95527     -16451.339      1515.3686    
    181000   3596.6715     -568.4313       0             -524.26521     -21810.594      1474.2463    
    182000   3640.9318     -580.06755      0             -535.35795      24801.689      1519.7949    
    183000   4489.7714     -574.21673      0             -519.08362      24397.543      1589.9875    
    184000   3751.1388     -575.06632      0             -529.00341     -47156.412      1576.0045    
    185000   4501.0218     -571.6573       0             -516.38604     -8180.2841      1592.013     
    186000   4262.3873     -580.36827      0             -528.02737      22226.604      1544.373     
    187000   3734.6203     -572.47353      0             -526.61347     -9511.6946      1548.909     
    188000   3942.7109     -574.53145      0             -526.11609      26776.475      1590.5019    
    189000   3840.3236     -574.37709      0             -527.21901     -628.51675      1648.9654    
    190000   3819.3198     -576.68469      0             -529.78453     -46429.555      1677.9289    
    191000   4170.4229     -569.68001      0             -518.46841     -31333.355      1733.0815    
    192000   3860.1154     -575.29161      0             -527.8905      -21676.412      1660.1846    
    193000   4076.5317     -569.64954      0             -519.5909      -46945.338      1678.3649    
    194000   3936.2683     -580.64056      0             -532.30431     -14265.242      1599.6204    
    195000   3856.5275     -579.35872      0             -532.00166     -5888.4109      1615.3425    
    196000   3378.6818     -567.151        0             -525.66176      6104.1689      1621.6543    
    197000   3428.747      -574.79475      0             -532.69072     -1862.1812      1605.0623    
    198000   3900.1248     -572.72377      0             -524.83135     -33617.836      1661.3738    
    199000   3599.4001     -582.22576      0             -538.02616      11134.731      1645.4235    
    200000   4099.417      -582.42844      0             -532.08878     -3630.1816      1660.72      
    201000   4150.2642     -575.20551      0             -524.24146      17167.199      1659.2117    
    202000   3809.0371     -572.47647      0             -525.70258     -9914.1304      1601.5565    
    203000   4210.2172     -581.96798      0             -530.26772      6860.4752      1587.5109    
    204000   4899.9786     -576.7785       0             -516.60816      2237.5351      1535.8332    
    205000   4584.4975     -580.42356      0             -524.12724      47763.666      1495.0224    
    206000   3913.5808     -575.47915      0             -527.4215       32421.451      1605.2887    
    207000   3904.6436     -572.25969      0             -524.31179     -6260.0355      1621.4215    
    208000   3570.2605     -577.64411      0             -533.80233     -32321.741      1587.8485    
    209000   4728.5069     -569.15715      0             -511.09244      64387.903      1487.436     
    210000   3374.642      -571.70658      0             -530.26694      49399.922      1472.0368    
    211000   3825.8869     -573.86334      0             -526.88254     -8005.1121      1551.4924    
    212000   4197.9663     -571.22031      0             -519.67049      49329.759      1581.9428    
    213000   4284.3112     -581.54467      0             -528.93456     -17304.656      1608.8562    
    214000   4078.7903     -574.75532      0             -524.66894     -3662.7453      1565.4298    
    215000   4173.5493     -570.42145      0             -519.17146      22229.39       1554.65      
    216000   4035.0939     -579.93267      0             -530.38287     -21687.319      1512.998     
    217000   4068.4756     -570.40144      0             -520.44172     -28315.36       1580.7797    
    218000   4287.7533     -572.23506      0             -519.58268      19523.275      1524.0555    
    219000   3814.7385     -569.99615      0             -523.15226     -13989.204      1632.8897    
    220000   3965.2585     -575.86508      0             -527.17284      42399.06       1565.3348    
    221000   4352.0553     -571.23902      0             -517.79702     -19575.097      1519.1509    
    222000   3927.71       -583.44558      0             -535.21442     -22239.431      1509.221     
    223000   4001.2902     -575.49005      0             -526.35536      54231.024      1567.5278    
    224000   4019.7029     -568.73315      0             -519.37235      31838.863      1521.6789    
    225000   3685.178      -576.99449      0             -531.74156     -7382.0565      1531.7541    
    226000   3921.6872     -561.05528      0             -512.89809      41739.331      1505.7647    
    227000   3652.5195     -577.27041      0             -532.41851      330.13475      1547.6075    
    228000   3952.3033     -569.75294      0             -521.21979      10727.582      1520.7855    
    229000   4176.5954     -580.16768      0             -528.88028      20484.706      1549.6686    
    230000   4379.8296     -578.98996      0             -525.2069       25611.416      1540.3902    
    231000   4533.1906     -574.12895      0             -518.46267     -24746.191      1546.5963    
    232000   4027.9014     -574.08656      0             -524.62509     -30500.908      1545.6879    
    233000   3590.3712     -576.06283      0             -531.9741      -17139.29       1555.3996    
    234000   4497.3033     -583.14296      0             -527.91736      35703.216      1508.2256    
    235000   3907.9141     -581.61991      0             -533.63184     -3202.9976      1594.1502    
    236000   3528.8841     -582.14051      0             -538.80682      12612.252      1582.9819    
    237000   4328.1095     -581.227        0             -528.07905     -8982.5661      1601.9659    
    238000   4494.4581     -574.72902      0             -519.53836     -24914.457      1616.5151    
    239000   4192.2702     -583.45178      0             -531.9719      -15858.933      1612.8829    
    240000   3976.1413     -576.08192      0             -527.25605     -32588.688      1613.9612    
Loop time of 7.04971 on 1 procs for 80000 steps with 96 atoms

Performance: 980.466 ns/day, 0.024 hours/ns, 11347.989 timesteps/s, 1.089 Matom-step/s
97.2% CPU use with 1 MPI tasks x no OpenMP threads

MPI task timing breakdown:
Section |  min time  |  avg time  |  max time  |%varavg| %total
---------------------------------------------------------------
Pair    | 5.9215     | 5.9215     | 5.9215     |   0.0 | 84.00
Bond    | 0.0029562  | 0.0029562  | 0.0029562  |   0.0 |  0.04
Neigh   | 0.39269    | 0.39269    | 0.39269    |   0.0 |  5.57
Comm    | 0.21662    | 0.21662    | 0.21662    |   0.0 |  3.07
Output  | 0.0095319  | 0.0095319  | 0.0095319  |   0.0 |  0.14
Modify  | 0.4657     | 0.4657     | 0.4657     |   0.0 |  6.61
Other   |            | 0.04066    |            |       |  0.58

Nlocal:             96 ave          96 max          96 min
Histogram: 1 0 0 0 0 0 0 0 0 0
Nghost:            497 ave         497 max         497 min
Histogram: 1 0 0 0 0 0 0 0 0 0
Neighs:              0 ave           0 max           0 min
Histogram: 1 0 0 0 0 0 0 0 0 0
FullNghs:         2584 ave        2584 max        2584 min
Histogram: 1 0 0 0 0 0 0 0 0 0

Total # of neighbors = 2584
Ave neighs/atom = 26.916667
Ave special neighs/atom = 0
Neighbor list builds = 3073
Dangerous builds = 0

fix npt1 all npt temp 4000 3000 0.1 iso 0 0  1
run 80000
Per MPI rank memory allocation (min/avg/max) = 8.549 | 8.549 | 8.549 Mbytes
   Step          Temp          E_pair         E_mol          TotEng         Press          Volume    
    240000   3976.1413     -576.08192      0             -527.25605     -32588.688      1613.9612    
    241000   4401.5098     -581.81997      0             -527.77069     -22710.917      1657.4519    
    242000   3686.4478     -574.36812      0             -529.0996      -21402.225      1669.7065    
    243000   4336.7665     -584.76788      0             -531.51363     -17025.645      1685.3888    
    244000   4271.5418     -574.38196      0             -521.92864      9609.9997      1626.7276    
    245000   3917.1455     -583.39526      0             -535.29383     -13693.6        1656.1566    
    246000   4473.2205     -580.75794      0             -525.82808     -6514.8326      1623.0264    
    247000   4323.1045     -577.20623      0             -524.11974     -8243.8912      1608.0602    
    248000   3899.1772     -575.69956      0             -527.81878     -12623.87       1635.0279    
    249000   4252.5047     -585.37873      0             -533.15919     -8076.8963      1667.4858    
    250000   3808.5608     -572.33176      0             -525.56372     -44741.418      1673.1626    
    251000   4197.389      -583.56538      0             -532.02265     -20162.273      1657.7588    
    252000   4050.1367     -586.34959      0             -536.61507     -43691.173      1678.0177    
    253000   4271.135      -577.96479      0             -525.51647      7075.0723      1626.9941    
    254000   4281.7151     -583.94445      0             -531.36622      37148.85       1563.1929    
    255000   3223.4267     -583.32511      0             -543.74235      37532.528      1524.4919    
    256000   3832.6507     -585.95701      0             -538.89316     -30749.223      1563.7218    
    257000   4081.8901     -587.43593      0             -537.31148      37175.415      1543.0334    
    258000   3828.4883     -577.11302      0             -530.10028      16350.466      1594.2225    
    259000   3984.6167     -584.47773      0             -535.54777     -38577.807      1621.7223    
    260000   3535.3686     -582.56367      0             -539.15036     -19482.309      1567.4929    
    261000   4175.9476     -577.07657      0             -525.79713      7188.2863      1576.8561    
    262000   3328.9457     -576.96442      0             -536.08592     -7797.4905      1592.7429    
    263000   3887.0739     -583.96732      0             -536.23517     -32762.947      1610.866     
    264000   4127.4989     -577.12099      0             -526.43648     -22741.698      1589.086     
    265000   3920.5959     -583.62353      0             -535.47974     -20149.915      1602.0152    
    266000   3241.0913     -576.66202      0             -536.86235     -33699.037      1568.9809    
    267000   3154.1099     -584.57016      0             -545.83859     -2619.7667      1526.7408    
    268000   3697.3677     -578.73183      0             -533.32921     -17389.407      1480.6134    
    269000   3356.2471     -585.04489      0             -543.83114      5719.4206      1496         
    270000   3518.8616     -588.24836      0             -545.03775      26654.208      1430.1891    
    271000   3346.8063     -585.85639      0             -544.75857      49496.371      1408.446     
    272000   3417.5652     -579.46929      0             -537.50257      17132.385      1514.3337    
    273000   3645.7167     -583.97394      0             -539.20559      49326.361      1530.5551    
    274000   2758.748      -586.02189      0             -552.14526     -181.23706      1564.3555    
    275000   3617.9369     -579.78621      0             -535.35898     -6292.2755      1508.0991    
    276000   3302.0612     -587.48199      0             -546.93362     -9911.2421      1421.3937    
    277000   3876.457      -584.81663      0             -537.21485      3056.1197      1504.0524    
    278000   2951.1722     -587.98099      0             -551.74145      31416.449      1491.6838    
    279000   3602.6456     -579.73989      0             -535.50044     -15957.978      1517.065     
    280000   3318.2347     -585.00184      0             -544.25487      807.36918      1560.3409    
    281000   3673.2031     -585.13513      0             -540.02925      48476.045      1527.8713    
    282000   3180.255      -583.832        0             -544.77938     -6883.6636      1573.2119    
    283000   3926.1892     -584.05117      0             -535.83869      20371.606      1534.7447    
    284000   3269.6891     -588.69486      0             -548.54402      38559.113      1552.2885    
    285000   4000.12       -589.2232       0             -540.10287     -102.33376      1556.8068    
    286000   4205.32       -584.61843      0             -532.9783      -2492.7497      1568.263     
    287000   3639.7899     -586.94142      0             -542.24585      11360.517      1584.7558    
    288000   3157.5535     -588.00131      0             -549.22746     -13217.442      1624.9514    
    289000   3142.4368     -577.97884      0             -539.39062     -35943.682      1623.1758    
    290000   4068.77       -589.58421      0             -539.62088     -33107.184      1612.1527    
    291000   3279.5528     -590.58137      0             -550.3094      -314.67022      1599.4824    
    292000   3401.6537     -582.47881      0             -540.70747     -90.278168      1642.8266    
    293000   3233.4875     -587.73819      0             -548.03189      6341.6264      1622.1062    
    294000   3250.1309     -579.12879      0             -539.21812     -20758.342      1637.72      
    295000   3187.8967     -587.79455      0             -548.64809     -6347.2986      1591.5939    
    296000   3286.544      -588.47443      0             -548.11661      4830.6477      1607.2887    
    297000   3590.0585     -587.31798      0             -543.23309      9082.3655      1585.6674    
    298000   3174.1538     -587.48677      0             -548.50907     -24289.764      1623.7086    
    299000   3155.8282     -589.25417      0             -550.50151      8214.5434      1615.6366    
    300000   3900.8219     -586.09011      0             -538.18913      1985.5921      1610.6128    
    301000   3035.8257     -588.06602      0             -550.78695     -14452.276      1584.2255    
    302000   3281.7913     -591.93648      0             -551.63703     -5745.7375      1627.1208    
    303000   3547.3921     -588.90398      0             -545.34302     -10119.242      1702.0082    
    304000   3436.0426     -592.16429      0             -549.97067      13134.852      1619.2753    
    305000   3112.9326     -587.43738      0             -549.21146     -29111.05       1571.3832    
    306000   3043.0438     -589.01182      0             -551.64411     -41233.14       1652.1162    
    307000   3352.592      -592.35073      0             -551.18186     -35093.302      1632.9891    
    308000   2922.6589     -590.38722      0             -554.49781     -19877.033      1568.7775    
    309000   3097.5385     -594.64491      0             -556.60803     -13321.203      1628.6153    
    310000   3099.0232     -589.70064      0             -551.64553     -275.15151      1615.0773    
    311000   3096.2576     -592.88231      0             -554.86115      9956.4855      1636.0182    
    312000   3222.1319     -591.0371       0             -551.47024     -25222.61       1639.4458    
    313000   2959.8921     -595.05754      0             -558.71091      7731.028       1608.6686    
    314000   3203.3437     -590.58786      0             -551.25171      7403.6034      1597.6283    
    315000   2419.1959     -593.15605      0             -563.44902     -11787.948      1580.1199    
    316000   2901.548      -594.25593      0             -558.62575      16863.446      1599.7165    
    317000   3124.3911     -592.29665      0             -553.93002      36762.893      1572.8826    
    318000   3089.3999     -599.37738      0             -561.44043     -22336.369      1562.6958    
    319000   3277.4931     -593.34766      0             -553.10098     -17021.085      1551.8733    
    320000   3168.3504     -598.03698      0             -559.13055     -9296.1005      1579.2967    
Loop time of 6.63567 on 1 procs for 80000 steps with 96 atoms

Performance: 1041.642 ns/day, 0.023 hours/ns, 12056.046 timesteps/s, 1.157 Matom-step/s
97.9% CPU use with 1 MPI tasks x no OpenMP threads

MPI task timing breakdown:
Section |  min time  |  avg time  |  max time  |%varavg| %total
---------------------------------------------------------------
Pair    | 5.5704     | 5.5704     | 5.5704     |   0.0 | 83.95
Bond    | 0.0025943  | 0.0025943  | 0.0025943  |   0.0 |  0.04
Neigh   | 0.36118    | 0.36118    | 0.36118    |   0.0 |  5.44
Comm    | 0.21014    | 0.21014    | 0.21014    |   0.0 |  3.17
Output  | 0.011786   | 0.011786   | 0.011786   |   0.0 |  0.18
Modify  | 0.44348    | 0.44348    | 0.44348    |   0.0 |  6.68
Other   |            | 0.03606    |            |       |  0.54

Nlocal:             96 ave          96 max          96 min
Histogram: 1 0 0 0 0 0 0 0 0 0
Nghost:            513 ave         513 max         513 min
Histogram: 1 0 0 0 0 0 0 0 0 0
Neighs:              0 ave           0 max           0 min
Histogram: 1 0 0 0 0 0 0 0 0 0
FullNghs:         2648 ave        2648 max        2648 min
Histogram: 1 0 0 0 0 0 0 0 0 0

Total # of neighbors = 2648
Ave neighs/atom = 27.583333
Ave special neighs/atom = 0
Neighbor list builds = 2842
Dangerous builds = 0

fix npt1 all npt temp 3000 3000 0.1 iso 0 0 1
run 80000
Per MPI rank memory allocation (min/avg/max) = 8.549 | 8.549 | 8.549 Mbytes
   Step          Temp          E_pair         E_mol          TotEng         Press          Volume    
    320000   3168.3504     -598.03698      0             -559.13055     -9296.1005      1579.2967    
    321000   3212.196      -597.68753      0             -558.24268      1357.5655      1581.0415    
    322000   2574.5905     -594.15309      0             -562.53785      18506.674      1607.8239    
    323000   3048.9431     -589.0806       0             -551.64045      16196.125      1600.2457    
    324000   3156.7359     -592.76106      0             -553.99725      8951.2159      1564.5844    
    325000   2948.3543     -598.67471      0             -562.46976      20702.518      1568.2201    
    326000   2924.4306     -589.39876      0             -553.48759      5966.0292      1610.641     
    327000   3031.4121     -594.20229      0             -556.97742     -1982.9645      1533.541     
    328000   3074.7876     -599.29634      0             -561.53883      39211.468      1518.0236    
    329000   2984.9527     -589.12245      0             -552.46809     -19838.306      1596.7503    
    330000   3193.5391     -591.48181      0             -552.26606      1588.7301      1619.7183    
    331000   3266.7044     -588.6209       0             -548.50671      6416.8387      1555.5981    
    332000   3165.8837     -589.98233      0             -551.10618      30967.496      1570.8741    
    333000   2686.5315     -595.14655      0             -562.15671      13386.729      1538.5239    
    334000   2930.2547     -590.89337      0             -554.91068      12349.245      1513.9875    
    335000   2907.4104     -599.67683      0             -563.97466      24130.84       1539.7606    
    336000   3347.4908     -592.27347      0             -551.16724      1152.921       1616.437     
    337000   2940.4999     -596.15094      0             -560.04244     -27194.06       1615.7393    
    338000   3116.1078     -589.65897      0             -551.39406     -15488.105      1614.1902    
    339000   3019.9101     -594.79395      0             -557.71032     -5596.4742      1612.1533    
    340000   3360.0889     -590.02553      0             -548.7646      -8152.532       1677.5784    
    341000   3113.1927     -597.25302      0             -559.02391      6034.7987      1632.4076    
    342000   3034.316      -587.28058      0             -550.02005      37300.843      1543.1388    
    343000   3041.2004     -589.47065      0             -552.12558      20312.423      1582.3234    
    344000   2753.4705     -595.12411      0             -561.31228      1666.9908      1646.8514    
    345000   3352.5092     -591.84194      0             -550.67409      6903.837       1642.2102    
    346000   3141.2139     -593.20819      0             -554.63498     -4846.0775      1644.2679    
    347000   2940.8146     -592.4043       0             -556.29194      9257.2801      1583.2757    
    348000   3277.0789     -593.61574      0             -553.37415      27629.229      1600.6888    
    349000   2927.4201     -587.22819      0             -551.28031      6406.5855      1630.8953    
    350000   2931.3735     -590.57996      0             -554.58353      6474.8855      1602.6958    
    351000   3095.9401     -596.84991      0             -558.83265      30937.184      1556.8109    
    352000   3428.639      -593.69932      0             -551.59661      23641.695      1539.0558    
    353000   2883.5336     -594.11939      0             -558.71042     -8030.1716      1620.0824    
    354000   3001.5142     -594.93409      0             -558.07636      21942.298      1621.6224    
    355000   3300.4875     -589.77003      0             -549.24099      5441.5453      1625.5376    
    356000   3050.4986     -597.67598      0             -560.21673      19451.046      1630.7884    
    357000   3337.2172     -596.73577      0             -555.75569      13946.648      1588.4322    
    358000   2830.7183     -595.00392      0             -560.24351      14639.193      1596.0919    
    359000   3192.3495     -589.55768      0             -550.35654      27172.479      1596.8936    
    360000   2908.9861     -593.47019      0             -557.74867     -14762.606      1614.7111    
    361000   2862.058      -592.36445      0             -557.2192      -27259.931      1675.6659    
    362000   3466.3278     -589.36414      0             -546.79863     -18426.379      1683.9993    
    363000   3543.9552     -595.15462      0             -551.63586      17441.478      1647.1381    
    364000   2790.81       -593.96851      0             -559.69816     -32428.113      1677.4886    
    365000   2757.2543     -593.74708      0             -559.88879     -23928.209      1636.6708    
    366000   2668.4151     -591.25508      0             -558.4877       2602.1526      1545.7289    
    367000   2783.439      -590.48948      0             -556.30965      10291.575      1557.2196    
    368000   3029.7377     -594.08253      0             -556.87822      11121.972      1570.0646    
    369000   2554.8142     -597.80406      0             -566.43168     -1942.9653      1654.2081    
    370000   3082.7069     -591.65983      0             -553.80507      4354.3568      1628.9694    
    371000   3115.3002     -592.78611      0             -554.53112     -25306.479      1610.5241    
    372000   2825.4909     -600.58916      0             -565.89294      9204.9316      1578.4512    
    373000   2941.6784     -591.0245       0             -554.90153      5641.3593      1615.5584    
    374000   2925.7629     -592.35615      0             -556.42862      15604.369      1599.784     
    375000   3261.5742     -588.89593      0             -548.84473     -22701.981      1662.1224    
    376000   2893.8944     -594.76046      0             -559.22427     -187.82428      1638.8485    
    377000   2566.4891     -598.17391      0             -566.65816      23493.944      1637.3216    
    378000   3263.4658     -593.96166      0             -553.88724      9867.3835      1609.1036    
    379000   3143.664      -597.14156      0             -558.53827      11280.928      1579.0194    
    380000   2662.8942     -598.98542      0             -566.28584     -5858.9804      1624.3389    
    381000   3047.7415     -589.92111      0             -552.49572      15342.558      1636.2577    
    382000   2967.238      -595.27027      0             -558.83344     -3935.4034      1650.1562    
    383000   3051.6017     -593.41484      0             -555.94204     -24765.604      1647.8673    
    384000   3063.6781     -594.09513      0             -556.47404     -9178.4209      1562.633     
    385000   2732.0598     -591.38437      0             -557.83546      2706.4082      1623.208     
    386000   3322.1777     -595.51546      0             -554.72007     -37404.832      1707.5984    
    387000   3068.8438     -597.32219      0             -559.63766     -23464.254      1664.8542    
    388000   3034.6807     -593.41004      0             -556.14503      39302.953      1579.5824    
    389000   3004.2885     -594.64509      0             -557.75329     -11391.328      1598.4329    
    390000   2605.7663     -589.80944      0             -557.81138      12172.106      1586.2215    
    391000   3108.9119     -591.25733      0             -553.08078     -21928.992      1609.6969    
    392000   3043.8065     -595.68046      0             -558.30338     -14537.211      1599.7048    
    393000   2902.9684     -591.2653       0             -555.61768     -21535.645      1610.0563    
    394000   3395.9201     -590.3815       0             -548.68058     -31588.132      1676.7462    
    395000   2990.1957     -593.66639      0             -556.94764     -1902.163       1661.8351    
    396000   2621.6156     -588.86426      0             -556.67157     -17267.514      1659.0707    
    397000   3475.4197     -591.14519      0             -548.46803      14267.633      1636.859     
    398000   3102.6314     -592.99539      0             -554.89596     -4579.052       1575.5538    
    399000   2836.4417     -590.90423      0             -556.07354      26889.455      1595.8216    
    400000   2645.7886     -596.10842      0             -563.61889     -22930.583      1642.7914    
Loop time of 6.26084 on 1 procs for 80000 steps with 96 atoms

Performance: 1104.005 ns/day, 0.022 hours/ns, 12777.841 timesteps/s, 1.227 Matom-step/s
98.8% CPU use with 1 MPI tasks x no OpenMP threads

MPI task timing breakdown:
Section |  min time  |  avg time  |  max time  |%varavg| %total
---------------------------------------------------------------
Pair    | 5.257      | 5.257      | 5.257      |   0.0 | 83.97
Bond    | 0.0025898  | 0.0025898  | 0.0025898  |   0.0 |  0.04
Neigh   | 0.31736    | 0.31736    | 0.31736    |   0.0 |  5.07
Comm    | 0.20473    | 0.20473    | 0.20473    |   0.0 |  3.27
Output  | 0.01022    | 0.01022    | 0.01022    |   0.0 |  0.16
Modify  | 0.43433    | 0.43433    | 0.43433    |   0.0 |  6.94
Other   |            | 0.03462    |            |       |  0.55

Nlocal:             96 ave          96 max          96 min
Histogram: 1 0 0 0 0 0 0 0 0 0
Nghost:            513 ave         513 max         513 min
Histogram: 1 0 0 0 0 0 0 0 0 0
Neighs:              0 ave           0 max           0 min
Histogram: 1 0 0 0 0 0 0 0 0 0
FullNghs:         2566 ave        2566 max        2566 min
Histogram: 1 0 0 0 0 0 0 0 0 0

Total # of neighbors = 2566
Ave neighs/atom = 26.729167
Ave special neighs/atom = 0
Neighbor list builds = 2585
Dangerous builds = 0

fix npt1 all npt temp 3000 2000 0.1 iso 0 0 1
run 80000
Per MPI rank memory allocation (min/avg/max) = 8.549 | 8.549 | 8.549 Mbytes
   Step          Temp          E_pair         E_mol          TotEng         Press          Volume    
    400000   2645.7886     -596.10842      0             -563.61889     -22930.583      1642.7914    
    401000   2757.2581     -589.72436      0             -555.86602      3861.3474      1593.8679    
    402000   3163.1262     -597.50505      0             -558.66276     -13389.897      1622.5027    
    403000   2888.5271     -590.14766      0             -554.67737     -7108.5478      1591.5646    
    404000   2368.8787     -597.76215      0             -568.673       -21218.293      1527.7309    
    405000   2931.2817     -593.91348      0             -557.91818      24694.251      1534.9405    
    406000   3170.7643     -596.56189      0             -557.62581      9313.6602      1567.7092    
    407000   2666.0547     -593.03112      0             -560.29273     -1643.0198      1618.2993    
    408000   3038.9289     -593.94008      0             -556.6229       16195.286      1654.4207    
    409000   2633.833      -593.27609      0             -560.93337      2368.4733      1635.8907    
    410000   2707.7839     -595.76961      0             -562.5188      -25927.236      1592.214     
    411000   3318.0789     -588.31268      0             -547.56762     -5230.529       1611.6137    
    412000   2758.7003     -593.99079      0             -560.11474      96.170741      1585.026     
    413000   2540.6737     -598.53957      0             -567.34083     -2972.3697      1595.2246    
    414000   2967.3547     -596.97705      0             -560.53878     -11434.644      1608.2504    
    415000   2456.9893     -597.01454      0             -566.84342     -25787.339      1680.0737    
    416000   2754.503      -595.0135       0             -561.18899     -19526.88       1656.4834    
    417000   2636.4428     -592.87036      0             -560.4956      -18762.276      1664.9561    
    418000   2638.2867     -597.929        0             -565.53159      25758.438      1604.4363    
    419000   2518.3223     -593.84012      0             -562.91584     -24532.057      1659.6214    
    420000   2619.8304     -593.00037      0             -560.82961      7699.1409      1604.1192    
    421000   2730.6895     -596.95017      0             -563.41808     -13805.055      1621.5141    
    422000   2442.7769     -594.073        0             -564.0764       6651.2589      1579.0735    
    423000   3167.1207     -596.25068      0             -557.35934      18695.413      1606.1642    
    424000   2617.9744     -596.68086      0             -564.53288     -4446.6409      1605.4366    
    425000   2452.3341     -595.18615      0             -565.07218     -38717.89       1676.9496    
    426000   3106.9747     -599.51504      0             -561.36228      25314.637      1581.8882    
    427000   2779.8176     -599.69412      0             -565.55875     -16718.898      1665.9769    
    428000   2672.4919     -602.04503      0             -569.22759     -17328.437      1638.6816    
    429000   2419.0035     -595.56854      0             -565.86387      4661.9397      1566.7173    
    430000   2437.3965     -601.38058      0             -571.45005     -2159.9035      1591.2832    
    431000   2238.3501     -595.18797      0             -567.70167     -27664.439      1609.6789    
    432000   3088.1503     -599.19045      0             -561.26885      15346.331      1596.313     
    433000   2767.9306     -601.25534      0             -567.26594     -3991.5746      1620.3772    
    434000   2477.1384     -600.86782      0             -570.44927      4879.2266      1599.6686    
    435000   2624.0011     -594.87421      0             -562.65223      25115.149      1534.6565    
    436000   2532.4        -600.12175      0             -569.0246       19164.42       1559.4319    
    437000   2465.6259     -603.66839      0             -573.39121      4218.9849      1609.1895    
    438000   2559.1176     -593.14777      0             -561.72254     -35739.288      1645.3163    
    439000   2582.9872     -601.11534      0             -569.397       -19527.85       1643.258     
    440000   2542.6389     -594.91478      0             -563.6919      -28335.35       1627.1158    
    441000   2665.6989     -602.06002      0             -569.326        31301.223      1598.6291    
    442000   2370.4245     -598.85603      0             -569.7479       16684.902      1627.7228    
    443000   2743.5026     -601.70533      0             -568.0159       2965.3967      1553.8879    
    444000   2400.1316     -603.81437      0             -574.34144      1603.3578      1551.8211    
    445000   2601.333      -599.59539      0             -567.65176      22707.599      1559.706     
    446000   2337.0173     -601.45383      0             -572.75592      17655.988      1576.3148    
    447000   2311.1158     -601.66139      0             -573.28155      10631.874      1612.478     
    448000   2282.2858     -600.1887       0             -572.16288     -19967.501      1594.9908    
    449000   2336.9054     -603.64543      0             -574.9489       14775.317      1550.2179    
    450000   2298.2533     -601.57954      0             -573.35765     -14283.662      1555.9366    
    451000   2190.0535     -598.134        0             -571.24077      9761.5856      1554.4897    
    452000   2121.1243     -600.69115      0             -574.64435     -19936.362      1604.2475    
    453000   2541.0552     -598.65637      0             -567.45294     -38307.101      1620.0591    
    454000   2381.8816     -604.36606      0             -575.11724     -4254.5645      1603.5824    
    455000   2371.4752     -602.34078      0             -573.21974      240.72408      1578.0161    
    456000   2480.8722     -606.51945      0             -576.05505      10996.015      1570.2011    
    457000   1897.1753     -603.01782      0             -579.72105      28850.141      1538.9146    
    458000   2324.5356     -601.48259      0             -572.93796     -8638.4488      1565.6452    
    459000   2136.3471     -603.47836      0             -577.24463     -10239.023      1625.3668    
    460000   2423.4872     -606.97307      0             -577.21334     -31761.232      1678.1715    
    461000   2299.8497     -603.87501      0             -575.63352      1842.2962      1646.4219    
    462000   2262.3974     -600.95986      0             -573.17826     -24308.917      1691.4006    
    463000   2335.0886     -607.44288      0             -578.76866     -12323.309      1661.3655    
    464000   2148.029      -602.00116      0             -575.62398     -15224.219      1628.5764    
    465000   2030.479      -608.05925      0             -583.12555     -13751.403      1627.7238    
    466000   2140.0524     -603.50074      0             -577.22151      6355.3005      1608.2113    
    467000   1856.7705     -605.42737      0             -582.62676     -16824.323      1640.2101    
    468000   2030.513      -603.54663      0             -578.61251      3544.278       1665.1709    
    469000   2002.7413     -603.19614      0             -578.60305      11644.832      1628.8923    
    470000   1953.6131     -604.37615      0             -580.38634     -18977.085      1654.2416    
    471000   2108.9434     -602.61968      0             -576.72246     -23975.678      1636.5695    
    472000   2076.6083     -608.8418       0             -583.34164      24976.466      1602.4882    
    473000   2310.4592     -606.25502      0             -577.88324     -4381.5326      1590.3994    
    474000   1873.6643     -603.23358      0             -580.22552      7893.2984      1580.1538    
    475000   2080.8058     -610.66472      0             -585.11302      38388.634      1582.5998    
    476000   2097.4563     -606.58584      0             -580.82967      23889.333      1613.3595    
    477000   1810.7481     -605.01394      0             -582.77847     -4434.0932      1600.5284    
    478000   1855.5836     -602.24372      0             -579.45769      25429.918      1612.3125    
    479000   1856.8168     -609.24995      0             -586.44877     -16959.327      1674.8232    
    480000   1790.5332     -607.63187      0             -585.64463     -2480.7398      1597.9842    
Loop time of 6.31721 on 1 procs for 80000 steps with 96 atoms

Performance: 1094.154 ns/day, 0.022 hours/ns, 12663.816 timesteps/s, 1.216 Matom-step/s
98.1% CPU use with 1 MPI tasks x no OpenMP threads

MPI task timing breakdown:
Section |  min time  |  avg time  |  max time  |%varavg| %total
---------------------------------------------------------------
Pair    | 5.3433     | 5.3433     | 5.3433     |   0.0 | 84.58
Bond    | 0.0026737  | 0.0026737  | 0.0026737  |   0.0 |  0.04
Neigh   | 0.2815     | 0.2815     | 0.2815     |   0.0 |  4.46
Comm    | 0.20053    | 0.20053    | 0.20053    |   0.0 |  3.17
Output  | 0.01377    | 0.01377    | 0.01377    |   0.0 |  0.22
Modify  | 0.44021    | 0.44021    | 0.44021    |   0.0 |  6.97
Other   |            | 0.03527    |            |       |  0.56

Nlocal:             96 ave          96 max          96 min
Histogram: 1 0 0 0 0 0 0 0 0 0
Nghost:            504 ave         504 max         504 min
Histogram: 1 0 0 0 0 0 0 0 0 0
Neighs:              0 ave           0 max           0 min
Histogram: 1 0 0 0 0 0 0 0 0 0
FullNghs:         2576 ave        2576 max        2576 min
Histogram: 1 0 0 0 0 0 0 0 0 0

Total # of neighbors = 2576
Ave neighs/atom = 26.833333
Ave special neighs/atom = 0
Neighbor list builds = 2258
Dangerous builds = 0

fix npt1 all npt temp 2000 2000 0.1 iso 0 0 1
run 80000
Per MPI rank memory allocation (min/avg/max) = 8.549 | 8.549 | 8.549 Mbytes
   Step          Temp          E_pair         E_mol          TotEng         Press          Volume    
    480000   1790.5332     -607.63187      0             -585.64463     -2480.7398      1597.9842    
    481000   2065.0156     -604.10016      0             -578.74236     -28698.548      1630.1632    
    482000   1811.5722     -607.74701      0             -585.50142      11728.85       1579.7062    
    483000   2311.7386     -605.30081      0             -576.91332     -643.97221      1670.4139    
    484000   1924.62       -606.02461      0             -582.39083     -9871.3319      1663.2678    
    485000   1716.8546     -606.469        0             -585.38651      17304.518      1574.9408    
    486000   2025.2675     -609.24853      0             -584.37882      20908.545      1583.3858    
    487000   1901.676      -606.23735      0             -582.88532      5382.822       1630.3713    
    488000   2023.6976     -607.94452      0             -583.09409     -20978.311      1665.0113    
    489000   2053.7352     -607.41628      0             -582.197        9501.5699      1579.4132    
    490000   1779.7402     -607.04701      0             -585.19231     -6664.6343      1607.2605    
    491000   2224.2616     -606.29147      0             -578.97818      548.56348      1652.0199    
    492000   1954.778      -608.11198      0             -584.10787     -11636.707      1633.8448    
    493000   2026.0677     -608.33283      0             -583.4533       18192.261      1584.7661    
    494000   2176.7873     -602.95242      0             -576.22209     -14688.291      1559.9097    
    495000   1808.5551     -607.58067      0             -585.37214     -8528.0855      1597.6652    
    496000   2332.9128     -608.05929      0             -579.41179     -23707.341      1631.7325    
    497000   2120.5669     -608.57011      0             -582.53015     -12207.018      1614.7953    
    498000   2174.469      -606.752        0             -580.05014     -2022.2601      1565.0759    
    499000   2007.6909     -613.46852      0             -588.81465     -8032.8625      1622.1393    
    500000   2037.6957     -608.38036      0             -583.35804     -9188.3514      1592.4291    
    501000   1853.9996     -606.82152      0             -584.05494      606.34233      1556.7943    
    502000   2252.646      -607.57462      0             -579.91277      1761.4229      1583.0986    
    503000   2015.1955     -606.46254      0             -581.71652     -22912.702      1592.9127    
    504000   2045.5046     -606.32722      0             -581.20901      19826.904      1551.686     
    505000   2009.0973     -607.88396      0             -583.21282      19068.2        1565.6873    
    506000   2069.9749     -607.40853      0             -581.98983     -19753.353      1620.41      
    507000   1737.8704     -604.60264      0             -583.26209     -25099.834      1622.4976    
    508000   1916.4697     -611.15232      0             -587.61862      31430.504      1536.0678    
    509000   2138.5422     -606.62338      0             -580.3627       10665.526      1594.682     
    510000   1945.5412     -606.65414      0             -582.76345     -20447.006      1634.4409    
    511000   1962.9406     -610.44078      0             -586.33643      44864.731      1547.6573    
    512000   1890.0432     -608.76836      0             -585.55917      17358.409      1653.0716    
    513000   2207.1361     -608.20585      0             -581.10285     -8718.544       1599.9712    
    514000   2128.1144     -608.89363      0             -582.76099     -3482.1313      1607.7032    
    515000   1785.2779     -601.32848      0             -579.40578     -25194.174      1628.3084    
    516000   1897.8668     -608.49619      0             -585.19093      4113.2506      1585.5096    
    517000   2254.9967     -605.10772      0             -577.417        24659.668      1602.3175    
    518000   2000.6166     -605.43726      0             -580.87026     -10765.349      1578.3875    
    519000   1759.7263     -608.70158      0             -587.09265     -15766.086      1590.7067    
    520000   2088.392      -607.74451      0             -582.09965      25085.651      1590.9748    
    521000   1914.0235     -605.97787      0             -582.47421      9927.29        1603.1455    
    522000   1746.8106     -606.79944      0             -585.3491       29702.246      1553.3362    
    523000   2164.0892     -610.7299       0             -584.15551      12497.472      1592.0334    
    524000   1757.706      -607.28754      0             -585.70342     -2429.2761      1583.9173    
    525000   1733.1514     -610.5687       0             -589.2861       2749.2239      1584.5167    
    526000   2075.5045     -608.49032      0             -583.00372      11052.673      1607.531     
    527000   2035.6467     -607.07864      0             -582.08149      10429.507      1567.1916    
    528000   1640.1846     -610.11115      0             -589.97015     -18201.598      1626.1901    
    529000   2044.1238     -607.81709      0             -582.71584      19102.812      1555.4663    
    530000   1983.458      -608.15327      0             -583.79697      1980.2715      1617.5122    
    531000   1950.4634     -603.5595       0             -579.60836      8597.1868      1608.8268    
    532000   1977.3465     -609.0414       0             -584.76015     -2211.1018      1592.6532    
    533000   2249.4326     -608.44264      0             -580.82025      8711.5634      1602.0213    
    534000   1801.9114     -607.09938      0             -584.97242     -26558.166      1624.5768    
    535000   2265.0608     -606.43714      0             -578.62284      444.62329      1597.3282    
    536000   1990.5432     -608.28675      0             -583.84345      2311.7244      1571.6238    
    537000   2142.9892     -604.92901      0             -578.61371     -22893.418      1677.7872    
    538000   1976.3411     -607.81917      0             -583.55027      19318.091      1585.7637    
    539000   1969.8161     -610.6958       0             -586.50702      17244.726      1559.6758    
    540000   2105.2808     -607.97833      0             -582.12609     -12292.891      1642.2127    
    541000   1894.0283     -609.09106      0             -585.83293     -21755.287      1609.9621    
    542000   1888.8721     -605.7662       0             -582.57139     -44.663073      1600.2134    
    543000   2311.2907     -605.35743      0             -576.97544      10304.34       1641.016     
    544000   2206.1488     -609.42407      0             -582.3332       17519.653      1594.3474    
    545000   2113.1567     -606.93576      0             -580.9868       1375.3188      1567.5794    
    546000   1988.0043     -606.70533      0             -582.29321     -10200.16       1593.7582    
    547000   2147.6263     -605.85351      0             -579.48127     -18614.826      1675.3225    
    548000   2161.7651     -610.8366       0             -584.29074      10954.575      1586.9175    
    549000   2001.1658     -606.59776      0             -582.02401     -10872.045      1617.0962    
    550000   2314.744      -608.15279      0             -579.7284       3295.8207      1600.2558    
    551000   1955.3085     -607.75444      0             -583.74381     -6422.4683      1618.2304    
    552000   1829.8976     -606.92756      0             -584.45694      12706.727      1585.3439    
    553000   1882.3291     -611.41223      0             -588.29776     -3105.2027      1596.9258    
    554000   2163.2946     -607.68407      0             -581.11943      6837.9304      1593.7525    
    555000   1990.1806     -609.70269      0             -585.26384      13260.489      1603.8434    
    556000   2085.0982     -610.51631      0             -584.9119       10810.706      1598.5461    
    557000   2103.8617     -608.27503      0             -582.44021     -17362.74       1603.456     
    558000   1785.6716     -609.98778      0             -588.06025     -23073.378      1656.7674    
    559000   1886.5325     -606.2333       0             -583.06722     -33944.565      1617.8859    
    560000   1897.7221     -602.38099      0             -579.07751     -709.32338      1574.9443    
Loop time of 6.07922 on 1 procs for 80000 steps with 96 atoms

Performance: 1136.987 ns/day, 0.021 hours/ns, 13159.573 timesteps/s, 1.263 Matom-step/s
99.2% CPU use with 1 MPI tasks x no OpenMP threads

MPI task timing breakdown:
Section |  min time  |  avg time  |  max time  |%varavg| %total
---------------------------------------------------------------
Pair    | 5.1789     | 5.1789     | 5.1789     |   0.0 | 85.19
Bond    | 0.002459   | 0.002459   | 0.002459   |   0.0 |  0.04
Neigh   | 0.23396    | 0.23396    | 0.23396    |   0.0 |  3.85
Comm    | 0.19439    | 0.19439    | 0.19439    |   0.0 |  3.20
Output  | 0.01033    | 0.01033    | 0.01033    |   0.0 |  0.17
Modify  | 0.42714    | 0.42714    | 0.42714    |   0.0 |  7.03
Other   |            | 0.03204    |            |       |  0.53

Nlocal:             96 ave          96 max          96 min
Histogram: 1 0 0 0 0 0 0 0 0 0
Nghost:            526 ave         526 max         526 min
Histogram: 1 0 0 0 0 0 0 0 0 0
Neighs:              0 ave           0 max           0 min
Histogram: 1 0 0 0 0 0 0 0 0 0
FullNghs:         2656 ave        2656 max        2656 min
Histogram: 1 0 0 0 0 0 0 0 0 0

Total # of neighbors = 2656
Ave neighs/atom = 27.666667
Ave special neighs/atom = 0
Neighbor list builds = 1900
Dangerous builds = 0

fix npt1 all npt temp 2000 1000 0.1 iso 0 0 1
run 80000
Per MPI rank memory allocation (min/avg/max) = 8.549 | 8.549 | 8.549 Mbytes
   Step          Temp          E_pair         E_mol          TotEng         Press          Volume    
    560000   1897.7221     -602.38099      0             -579.07751     -709.32338      1574.9443    
    561000   1990.6687     -609.85326      0             -585.40841     -15577.964      1633.4264    
    562000   1865.7201     -609.88144      0             -586.97094     -12340.238      1624.4973    
    563000   1982.2146     -607.42834      0             -583.08731      6760.6065      1591.1691    
    564000   2106.8717     -610.09717      0             -584.22539     -11801.606      1596.5848    
    565000   1755.2908     -608.75588      0             -587.20141      9388.9853      1587.7643    
    566000   1933.566      -609.71734      0             -585.9737      -7319.0101      1656.6808    
    567000   1982.7093     -611.27456      0             -586.92746      1187.2568      1549.0832    
    568000   1988.4065     -607.28855      0             -582.87149     -19477.632      1591.2001    
    569000   1941.1824     -607.77048      0             -583.93331      14356.755      1565.5872    
    570000   1907.5646     -609.7638       0             -586.33945     -16525.786      1648.7591    
    571000   1935.8531     -608.6932       0             -584.92148      15145.95       1539.9439    
    572000   1756.0295     -609.82971      0             -588.26617     -4082.7895      1600.5906    
    573000   2024.7459     -610.90401      0             -586.04071      17120.37       1605.4351    
    574000   1755.8762     -613.83347      0             -592.27181     -12050.563      1615.6403    
    575000   2010.744      -612.03204      0             -587.34068     -4799.5779      1588.7763    
    576000   1829.2319     -607.56946      0             -585.10702      15582.657      1570.7846    
    577000   1580.8745     -608.2057       0             -588.79301      2242.2946      1629.3237    
    578000   2140.6075     -611.04902      0             -584.76297      27590.373      1540.182     
    579000   1575.9086     -609.93888      0             -590.58717     -21327.193      1612.1707    
    580000   1683.4048     -611.33315      0             -590.66142     -6746.6919      1601.9829    
    581000   1874.7794     -609.39185      0             -586.37009     -13274.836      1606.5436    
    582000   1414.758      -607.54671      0             -590.17389     -9622.3585      1559.7865    
    583000   1741.7856     -607.94989      0             -586.56126     -21677.212      1625.5451    
    584000   1656.3775     -611.91978      0             -591.57994     -10079.244      1586.2683    
    585000   1809.4679     -609.38331      0             -587.16356      3713.029       1588.6864    
    586000   1706.5979     -613.23802      0             -592.28149     -13617.217      1569.5944    
    587000   1428.0671     -613.0776       0             -595.54134     -15454.962      1606.2211    
    588000   1831.7671     -611.76964      0             -589.27606      3219.3216      1596.6671    
    589000   1559.239      -612.47057      0             -593.32357      10158.98       1555.6963    
    590000   1695.5246     -612.73712      0             -591.91656     -12234.619      1610.393     
    591000   1550.9611     -614.26528      0             -595.21992     -19372.561      1634.7836    
    592000   1399.0497     -614.12871      0             -596.94878     -7555.5294      1586.5881    
    593000   1610.5597     -612.74305      0             -592.96583     -6161.0296      1616.7207    
    594000   1549.2556     -615.52164      0             -596.49722     -22376.15       1572.0692    
    595000   1769.5304     -611.33108      0             -589.60175     -5505.3728      1611.9333    
    596000   1431.686      -614.05982      0             -596.47912      9166.9281      1573.9617    
    597000   1591.2927     -611.54917      0             -592.00855      76.45785       1617.3181    
    598000   1355.1536     -613.28527      0             -596.64438      7153.7761      1615.3105    
    599000   1560.1865     -614.12012      0             -594.96147      2766.8706      1560.7729    
    600000   1187.9504     -613.20698      0             -598.61929     -7506.5693      1585.8146    
    601000   1269.9877     -613.60388      0             -598.0088       6628.3837      1574.9476    
    602000   1656.0754     -612.78504      0             -592.44891     -3150.097       1605.181     
    603000   1647.9368     -614.32232      0             -594.08612      13683.292      1581.6035    
    604000   1526.0391     -617.02246      0             -598.28314     -1498.249       1597.1854    
    605000   1385.7509     -614.85042      0             -597.8338      -5541.9828      1582.1645    
    606000   1268.401      -615.2282       0             -599.6526       7250.4719      1576.4188    
    607000   1576.8497     -613.92439      0             -594.56113     -17083.729      1618.6646    
    608000   1442.6604     -615.52623      0             -597.81077      15102.401      1590.347     
    609000   1259.6691     -615.6719       0             -600.20353     -6127.1863      1614.2709    
    610000   1242.0415     -616.46148      0             -601.20957     -9019.992       1538.0357    
    611000   1300.7753     -613.69046      0             -597.71731      2891.691       1601.8157    
    612000   1504.9652     -616.30779      0             -597.82725     -3481.0685      1588.621     
    613000   1196.5557     -617.01116      0             -602.31779      4066.1219      1572.1588    
    614000   1366.4548     -616.19785      0             -599.41818     -13290.546      1603.0878    
    615000   1242.7455     -618.71041      0             -603.44985     -2581.0957      1601.1357    
    616000   1260.6711     -618.18088      0             -602.7002       23101.86       1544.5373    
    617000   1419.2875     -616.15064      0             -598.72219     -5856.9191      1599.7263    
    618000   1298.1864     -618.10716      0             -602.1658      -8931.8411      1614.0862    
    619000   1310.0232     -616.62168      0             -600.53497     -5044.0928      1589.7685    
    620000   1215.3647     -620.1853       0             -605.26097     -1822.7138      1568.0307    
    621000   1280.5051     -617.57146      0             -601.84723      3001.1095      1609.122     
    622000   1396.5465     -618.42221      0             -601.27302      2181.7006      1581.62      
    623000   1394.8843     -617.98142      0             -600.85264      16771.915      1552.4582    
    624000   1185.3062     -620.23266      0             -605.67744     -14782.922      1597.4183    
    625000   1218.7394     -617.56488      0             -602.59911     -13946.249      1598.1819    
    626000   1088.2594     -618.75549      0             -605.39198      8347.2996      1569.3933    
    627000   1241.7976     -618.45859      0             -603.20967      47.108258      1554.8082    
    628000   1152.0619     -619.2259       0             -605.0789      -14091.505      1586.7821    
    629000   1030.9925     -619.70616      0             -607.04586     -2380.666       1567.0141    
    630000   1260.0889     -619.15933      0             -603.68579     -10063.892      1568.6695    
[...]
Neighs:              0 ave           0 max           0 min
Histogram: 1 0 0 0 0 0 0 0 0 0
FullNghs:         2666 ave        2666 max        2666 min
Histogram: 1 0 0 0 0 0 0 0 0 0

Total # of neighbors = 2666
Ave neighs/atom = 27.770833
Ave special neighs/atom = 0
Neighbor list builds = 103
Dangerous builds = 0


fix npt1 all npt temp 500 10 0.1 iso 0 0 1
run 80000
Per MPI rank memory allocation (min/avg/max) = 8.549 | 8.549 | 8.549 Mbytes
   Step          Temp          E_pair         E_mol          TotEng         Press          Volume    
    880000   543.66391     -627.64445      0             -620.96842     -3103.5005      1576.903     
    881000   478.79756     -628.20148      0             -622.32199     -7117.7145      1546.4836    
    882000   518.38206     -627.93062      0             -621.56504     -3310.32        1569.1324    
    883000   558.76009     -628.55836      0             -621.69694      18711.293      1535.0781    
    884000   489.90042     -627.86579      0             -621.84995     -2306.1061      1583.1562    
    885000   425.57498     -628.41163      0             -623.18569      16539.034      1549.4862    
    886000   431.18778     -627.94503      0             -622.65017      19439.001      1542.7044    
    887000   371.10135     -629.03384      0             -624.47682      8339.0994      1543.7627    
    888000   486.73575     -628.522        0             -622.54503      9954.0366      1555.6222    
    889000   473.9608      -628.1949       0             -622.3748      -5720.0909      1557.5199    
    890000   432.97198     -628.56698      0             -623.25021     -812.88489      1556.5428    
    891000   416.70694     -628.23466      0             -623.11762     -5959.8351      1557.7126    
    892000   383.64302     -629.12036      0             -624.40933      4510.9233      1552.8596    
    893000   369.8335      -629.21031      0             -624.66886     -2681.6317      1549.6002    
    894000   394.61682     -628.55225      0             -623.70647     -9547.5831      1587.3501    
    895000   409.28818     -629.90711      0             -624.88117      9532.1895      1529.0472    
    896000   366.15225     -629.26934      0             -624.7731       1033.1949      1551.4194    
    897000   515.68416     -629.57863      0             -623.24617      2861.9231      1553.7259    
    898000   393.64454     -630.17101      0             -625.33717      6901.2557      1540.8576    
    899000   400.96788     -629.76522      0             -624.84145      7941.5042      1546.2285    
    900000   372.50363     -629.65985      0             -625.08562      1430.308       1565.483     
    901000   393.00252     -629.61776      0             -624.7918      -4902.9423      1560.3406    
    902000   352.71793     -629.49356      0             -625.16229     -1933.3502      1573.2868    
    903000   350.14036     -630.23281      0             -625.93319      11738.313      1538.3683    
    904000   351.8394      -630.3245       0             -626.00402     -1438.6978      1567.0157    
    905000   375.9376      -630.26932      0             -625.65291     -3929.138       1559.8983    
    906000   320.72998     -629.82532      0             -625.88685      2637.773       1556.9012    
    907000   340.27525     -630.36754      0             -626.18906     -2643.4705      1554.1938    
    908000   291.46026     -630.15162      0             -626.57258      2194.2853      1557.8992    
    909000   324.52391     -630.34026      0             -626.3552       1975.58        1559.0547    
    910000   342.06588     -630.73373      0             -626.53326     -12257.204      1565.0553    
    911000   313.62747     -630.37825      0             -626.527       -2751.5978      1545.9938    
    912000   292.8129      -631.02631      0             -627.43065     -2091.0754      1554.7065    
    913000   294.30142     -630.64669      0             -627.03275     -2117.106       1563.1267    
    914000   307.08866     -631.37563      0             -627.60467     -1868.3032      1539.2734    
    915000   286.53742     -631.19124      0             -627.67264      3376.3972      1553.2259    
    916000   283.69133     -630.44326      0             -626.95961     -4178.0752      1562.9098    
    917000   276.27628     -631.02706      0             -627.63446     -10949.846      1566.9306    
    918000   288.74537     -630.83853      0             -627.29282     -1777.9358      1554.7773    
    919000   262.09267     -631.34699      0             -628.12857     -10847.841      1556.4776    
    920000   270.50892     -631.51913      0             -628.19735     -2748.9304      1548.1487    
    921000   240.64409     -631.27049      0             -628.31545     -2956.1297      1550.4698    
    922000   254.08594     -631.383        0             -628.2629      -2030.7309      1540.8737    
    923000   227.82462     -631.22562      0             -628.428       -7812.9682      1564.3389    
    924000   201.39468     -631.48266      0             -629.00959     -5519.9485      1559.9239    
    925000   242.08523     -631.59481      0             -628.62207     -6072.9662      1555.7829    
    926000   227.28974     -631.79779      0             -629.00674      6134.1328      1542.9733    
    927000   194.01085     -631.70532      0             -629.32292     -4423.5835      1549.2486    
    928000   204.04753     -632.11002      0             -629.60438     -79.316341      1555.4579    
    929000   257.58545     -631.93954      0             -628.77646     -860.30639      1553.3018    
    930000   201.65541     -632.16962      0             -629.69334      3991.1598      1536.4859    
    931000   211.39327     -631.89882      0             -629.30297     -4343.1188      1554.1798    
    932000   183.45687     -632.11266      0             -629.85986      2105.0748      1542.8789    
    933000   173.10767     -632.44466      0             -630.31894     -7176.277       1549.6711    
    934000   178.22568     -632.2399       0             -630.05134      1659.2055      1543.8902    
    935000   154.45202     -632.53374      0             -630.63712     -935.61066      1553.6519    
    936000   163.5259      -632.2777       0             -630.26965      4192.7044      1528.936     
    937000   138.24816     -632.70266      0             -631.00501      9787.203       1538.8604    
    938000   139.05753     -632.61062      0             -630.90303      2081.723       1540.7374    
    939000   126.1789      -632.592        0             -631.04255      1377.114       1548.4087    
    940000   131.93639     -632.59628      0             -630.97614      5160.2097      1541.5639    
    941000   130.29625     -632.90159      0             -631.30159     -91.390246      1550.657     
    942000   117.53249     -632.8695       0             -631.42624     -2833.6527      1546.9596    
    943000   130.33502     -633.06588      0             -631.4654       1654.3429      1542.4623    
    944000   95.91302      -633.0498       0             -631.87201     -1736.9937      1549.1519    
    945000   111.78103     -632.87972      0             -631.50709      1720.7479      1541.2118    
    946000   97.515195     -633.19715      0             -631.99969      3273.2291      1541.2848    
    947000   87.628363     -633.2729       0             -632.19685     -1389.273       1542.2512    
    948000   94.535313     -633.27738      0             -632.11652     -1335.0962      1536.2199    
    949000   66.544853     -633.35577      0             -632.53862     -6145.8044      1552.537     
    950000   78.30346      -633.35168      0             -632.39013     -1827.3108      1537.0189    
    951000   58.390475     -633.53069      0             -632.81367     -3851.6376      1549.6551    
    952000   63.823889     -633.60632      0             -632.82258     -3646.0678      1549.6907    
    953000   55.295522     -633.74424      0             -633.06522      2673.5197      1535.1951    
    954000   50.018197     -633.85325      0             -633.23904      2197.4869      1531.9642    
    955000   40.368491     -633.91259      0             -633.41687     -2592.0525      1545.873     
    956000   33.985674     -634.00068      0             -633.58335      468.31505      1539.9785    
    957000   26.655999     -634.06555      0             -633.73822      384.1501       1542.4997    
    958000   19.890935     -634.09872      0             -633.85446     -1004.8607      1538.5748    
    959000   14.46504      -634.17941      0             -634.00178     -321.10284      1541.4173    
    960000   11.774014     -634.27804      0             -634.13346     -918.05788      1541.9043    
Loop time of 5.28782 on 1 procs for 80000 steps with 96 atoms

Performance: 1307.155 ns/day, 0.018 hours/ns, 15129.108 timesteps/s, 1.452 Matom-step/s
99.3% CPU use with 1 MPI tasks x no OpenMP threads

MPI task timing breakdown:
Section |  min time  |  avg time  |  max time  |%varavg| %total
---------------------------------------------------------------
Pair    | 4.6571     | 4.6571     | 4.6571     |   0.0 | 88.07
Bond    | 0.002396   | 0.002396   | 0.002396   |   0.0 |  0.05
Neigh   | 0.0040547  | 0.0040547  | 0.0040547  |   0.0 |  0.08
Comm    | 0.17713    | 0.17713    | 0.17713    |   0.0 |  3.35
Output  | 0.010397   | 0.010397   | 0.010397   |   0.0 |  0.20
Modify  | 0.41129    | 0.41129    | 0.41129    |   0.0 |  7.78
Other   |            | 0.02544    |            |       |  0.48

Nlocal:             96 ave          96 max          96 min
Histogram: 1 0 0 0 0 0 0 0 0 0
Nghost:            525 ave         525 max         525 min
Histogram: 1 0 0 0 0 0 0 0 0 0
Neighs:              0 ave           0 max           0 min
Histogram: 1 0 0 0 0 0 0 0 0 0
FullNghs:         2682 ave        2682 max        2682 min
Histogram: 1 0 0 0 0 0 0 0 0 0

Total # of neighbors = 2682
Ave neighs/atom = 27.9375
Ave special neighs/atom = 0
Neighbor list builds = 33
Dangerous builds = 0

fix npt1 all npt temp 10 10 0.1 iso 0 0 1
run 80000
Per MPI rank memory allocation (min/avg/max) = 8.549 | 8.549 | 8.549 Mbytes
   Step          Temp          E_pair         E_mol          TotEng         Press          Volume    
    960000   11.774014     -634.27804      0             -634.13346     -918.05788      1541.9043    
    961000   9.5475426     -634.2718       0             -634.15456      959.91531      1538.9978    
    962000   9.8847491     -634.26574      0             -634.14436      1764.1456      1538.7669    
    963000   11.181976     -634.24893      0             -634.11162      675.85315      1538.8743    
    964000   10.513319     -634.2683       0             -634.1392       908.40514      1539.5025    
    965000   9.6231309     -634.27523      0             -634.15706     -743.44309      1541.8098    
    966000   10.59121      -634.26633      0             -634.13628     -467.27656      1544.1855    
    967000   10.367534     -634.24846      0             -634.12115     -113.09019      1534.5905    
    968000   9.642759      -634.2671       0             -634.14869      310.75538      1541.5207    
    969000   9.7889666     -634.26408      0             -634.14388     -1100.5267      1542.0306    
    970000   10.386301     -634.26157      0             -634.13403      68.028651      1540.2406    
    971000   10.367415     -634.27527      0             -634.14796     -594.62845      1539.4717    
    972000   10.841866     -634.25359      0             -634.12045     -950.28203      1541.5571    
    973000   9.0440071     -634.26316      0             -634.1521       628.52915      1540.1073    
    974000   10.995729     -634.2766       0             -634.14157      1715.0215      1539.5004    
    975000   9.419142      -634.26427      0             -634.1486       2757.0982      1539.0885    
    976000   10.300944     -634.25752      0             -634.13103      426.73602      1537.1277    
    977000   10.333784     -634.27821      0             -634.15132      1370.2909      1536.6641    
    978000   8.8973335     -634.27424      0             -634.16499     -274.05156      1541.2257    
    979000   10.709231     -634.26649      0             -634.13499      886.86597      1538.3708    
    980000   9.1935668     -634.28626      0             -634.17337      1291.2         1536.1742    
    981000   9.3629431     -634.25419      0             -634.13922     -733.67049      1541.4734    
    982000   10.400925     -634.28113      0             -634.15341     -929.0911       1540.1128    
    983000   10.349513     -634.24784      0             -634.12075     -1682.8018      1541.3002    
    984000   9.3446556     -634.25788      0             -634.14313     -1241.7001      1539.0471    
    985000   9.1668793     -634.26974      0             -634.15717     -952.80746      1539.2056    
    986000   10.050672     -634.25983      0             -634.13641      354.14737      1538.7069    
    987000   10.679733     -634.25276      0             -634.12162     -997.08485      1540.8027    
    988000   8.5415599     -634.26425      0             -634.15936      1346.5597      1536.8728    
    989000   10.563653     -634.24961      0             -634.11989     -708.9056       1540.5775    
    990000   9.8962491     -634.27435      0             -634.15283     -1512.5796      1540.5533    
    991000   10.241761     -634.2716       0             -634.14584     -85.712508      1537.6095    
    992000   10.090005     -634.26096      0             -634.13706      46.203099      1542.9586    
    993000   10.033342     -634.28551      0             -634.1623       897.14516      1537.4382    
    994000   10.093485     -634.26591      0             -634.14197     -412.60537      1538.9406    
    995000   10.242456     -634.26096      0             -634.13519     -436.40587      1545.1869    
    996000   9.5822068     -634.28355      0             -634.16589     -405.68445      1539.8579    
    997000   9.4076277     -634.23966      0             -634.12414      1049.8267      1537.0182    
    998000   9.679652      -634.26782      0             -634.14896     -1526.8522      1543.6757    
    999000   11.042049     -634.25313      0             -634.11753     -1221.117       1540.4051    
   1000000   10.786424     -634.28336      0             -634.1509       1529.1904      1535.5858    
   1001000   9.9692842     -634.25673      0             -634.13431      644.33231      1539.6177    
   1002000   7.9757055     -634.26575      0             -634.16781     -468.98514      1538.802     
   1003000   9.4390947     -634.26485      0             -634.14894     -711.9523       1539.3726    
   1004000   9.8213784     -634.26002      0             -634.13941      1124.8697      1540.2068    
   1005000   9.6957534     -634.26884      0             -634.14978      483.0801       1539.5668    
   1006000   9.8770459     -634.25138      0             -634.13009      1781.1537      1537.4473    
   1007000   8.6741564     -634.27072      0             -634.1642      -1629.0001      1542.5894    
   1008000   10.518059     -634.26817      0             -634.13901     -719.36274      1541.9528    
   1009000   10.107024     -634.27171      0             -634.1476       55.49036       1540.7925    
   1010000   9.9977238     -634.2775       0             -634.15473     -319.57516      1537.932     
   1011000   10.286251     -634.25492      0             -634.12861     -869.16852      1540.5512    
   1012000   10.666393     -634.26526      0             -634.13427     -639.85599      1538.7984    
   1013000   11.13732      -634.27465      0             -634.13788      2138.7668      1536.7885    
   1014000   9.4866359     -634.24408      0             -634.12758      148.63788      1540.4561    
   1015000   9.3422802     -634.26819      0             -634.15347      864.16038      1538.4037    
   1016000   10.618053     -634.27675      0             -634.14636     -1743.3352      1541.1755    
   1017000   10.328923     -634.24049      0             -634.11365      223.331        1539.0548    
   1018000   8.8744503     -634.25601      0             -634.14703      393.91008      1538.7537    
   1019000   8.9240741     -634.2721       0             -634.16252     -1287.2934      1540.0853    
   1020000   10.052601     -634.25813      0             -634.13469     -1527.5208      1538.8718    
   1021000   11.626755     -634.2461       0             -634.10333     -1716.6045      1542.076     
   1022000   9.3065032     -634.26839      0             -634.15411     -431.72876      1537.9769    
   1023000   10.161458     -634.25059      0             -634.12581     -3164.6925      1543.4767    
   1024000   9.6188955     -634.26805      0             -634.14994     -833.36916      1541.3006    
   1025000   10.182198     -634.25908      0             -634.13405     -484.69443      1540.9703    
   1026000   9.6275234     -634.27286      0             -634.15463      1081.8304      1535.8541    
   1027000   10.942072     -634.25108      0             -634.11671     -189.60833      1543.9183    
   1028000   10.838272     -634.27484      0             -634.14175     -1174.5406      1541.8309    
   1029000   9.3125323     -634.2542       0             -634.13984     -1782.2335      1538.2185    
   1030000   11.325622     -634.24899      0             -634.10991     -1062.3518      1541.2915    
   1031000   9.5443408     -634.27346      0             -634.15626     -376.43939      1541.291     
   1032000   9.8931952     -634.25758      0             -634.13609     -218.09918      1538.1088    
   1033000   9.0267398     -634.27046      0             -634.15961      234.87364      1538.7328    
   1034000   10.4406       -634.26141      0             -634.1332      -520.01118      1541.2234    
   1035000   9.3963843     -634.26609      0             -634.15071     -1475.5109      1541.7646    
   1036000   9.3671148     -634.24255      0             -634.12753     -1445.4719      1540.6737    
   1037000   8.3359626     -634.2597       0             -634.15734     -1031.3741      1542.6806    
   1038000   11.23459      -634.26883      0             -634.13087      132.7262       1537.4854    
   1039000   10.538254     -634.26569      0             -634.13628      699.04827      1540.6489    
   1040000   9.3680667     -634.27006      0             -634.15503     -1578.2686      1543.4696    
Loop time of 5.17087 on 1 procs for 80000 steps with 96 atoms

Performance: 1336.719 ns/day, 0.018 hours/ns, 15471.288 timesteps/s, 1.485 Matom-step/s
98.9% CPU use with 1 MPI tasks x no OpenMP threads

MPI task timing breakdown:
Section |  min time  |  avg time  |  max time  |%varavg| %total
---------------------------------------------------------------
Pair    | 4.5462     | 4.5462     | 4.5462     |   0.0 | 87.92
Bond    | 0.0024291  | 0.0024291  | 0.0024291  |   0.0 |  0.05
Neigh   | 0          | 0          | 0          |   0.0 |  0.00
Comm    | 0.17488    | 0.17488    | 0.17488    |   0.0 |  3.38
Output  | 0.0093959  | 0.0093959  | 0.0093959  |   0.0 |  0.18
Modify  | 0.41277    | 0.41277    | 0.41277    |   0.0 |  7.98
Other   |            | 0.02519    |            |       |  0.49

Nlocal:             96 ave          96 max          96 min
Histogram: 1 0 0 0 0 0 0 0 0 0
Nghost:            515 ave         515 max         515 min
Histogram: 1 0 0 0 0 0 0 0 0 0
Neighs:              0 ave           0 max           0 min
Histogram: 1 0 0 0 0 0 0 0 0 0
FullNghs:         2708 ave        2708 max        2708 min
Histogram: 1 0 0 0 0 0 0 0 0 0

Total # of neighbors = 2708
Ave neighs/atom = 28.208333
Ave special neighs/atom = 0
Neighbor list builds = 0
Dangerous builds = 0


write_data amorphousSiO.data
System init for write_data ...


Total wall time: 0:01:19
