96
 Atoms. Timestep: 0
2 0 7.95642 4.74695
2 4.63304 0 11.358
2 0 4.63304 4.74695
2 7.95642 0 11.358
2 0 4.63304 8.47514
2 7.95642 0 1.8641
2 0 7.95642 8.47514
2 4.63304 0 1.8641
2 10.7421 8.43088 6.61105
2 4.15858 10.7421 0
2 1.84736 4.15858 6.61105
2 8.43088 1.84736 0
2 1.84736 8.43088 6.61105
2 8.43088 10.7421 0
2 10.7421 4.15858 6.61105
2 4.15858 1.84736 0
2 10.5201 6.29473 5.04003
2 6.29473 10.5201 11.6511
2 2.06934 6.29473 5.04003
2 6.29473 2.06934 11.6511
2 2.06934 6.29473 8.18207
2 6.29473 2.06934 1.57102
2 10.5201 6.29473 8.18207
2 6.29473 10.5201 1.57102
2 10.1594 8.65935 9.20274
2 3.93011 10.1594 2.59169
2 2.43004 3.93011 9.20274
2 8.65935 2.43004 2.59169
2 2.43004 8.65935 9.20274
2 8.65935 10.1594 2.59169
2 10.1594 3.93011 9.20274
2 3.93011 2.43004 2.59169
2 2.43004 3.93011 4.01936
2 8.65935 2.43004 10.6304
2 10.1594 8.65935 4.01936
2 3.93011 10.1594 10.6304
2 10.1594 3.93011 4.01936
2 3.93011 2.43004 10.6304
2 2.43004 8.65935 4.01936
2 8.65935 10.1594 10.6304
2 0 10.703 0
2 1.88643 0 6.61105
2 0 1.88643 0
2 10.703 0 6.61105
2 0 0 1.872
2 0 0 8.48305
2 0 0 11.3501
2 0 0 4.73905
2 11.2706 2.31295 2.18973
2 10.2765 11.2706 8.80078
2 1.31887 10.2765 2.18973
2 2.31295 1.31887 8.80078
2 1.31887 2.31295 2.18973
2 2.31295 11.2706 8.80078
2 11.2706 10.2765 2.18973
2 10.2765 1.31887 8.80078
2 1.31887 10.2765 11.0324
2 2.31295 1.31887 4.42131
2 11.2706 2.31295 11.0324
2 10.2765 11.2706 4.42131
2 11.2706 10.2765 11.0324
2 10.2765 1.31887 4.42131
2 1.31887 2.31295 11.0324
2 2.31295 11.2706 4.42131
1 11.0086 7.83654 8.10972
1 4.75292 11.0086 1.49867
1 1.5809 4.75292 8.10972
1 7.83654 1.5809 1.49867
1 1.5809 7.83654 8.10972
1 7.83654 11.0086 1.49867
1 11.0086 4.75292 8.10972
1 4.75292 1.5809 1.49867
1 1.5809 4.75292 5.11238
1 7.83654 1.5809 11.7234
1 11.0086 7.83654 5.11238
1 4.75292 11.0086 11.7234
1 11.0086 4.75292 5.11238
1 4.75292 1.5809 11.7234
1 1.5809 7.83654 5.11238
1 7.83654 11.0086 11.7234
1 10.1088 10.1088 3.30552
1 2.48067 10.1088 9.91657
1 2.48067 2.48067 3.30552
1 10.1088 2.48067 9.91657
1 2.48067 10.1088 3.30552
1 10.1088 10.1088 9.91657
1 10.1088 2.48067 3.30552
1 2.48067 2.48067 9.91657
1 0 1.60471 1.57853
1 10.9848 0 8.18958
1 0 10.9848 1.57853
1 1.60471 0 8.18958
1 0 10.9848 11.6436
1 1.60471 0 5.03252
1 0 1.60471 11.6436
1 10.9848 0 5.03252
96
 Atoms. Timestep: 2000
2 11.8062 8.31746 4.38462
2 4.11675 12.156 11.2665
2 12.9944 4.33189 5.02538
2 8.19035 12.2992 10.843
2 -0.108492 4.73405 8.34601
2 7.41206 12.304 1.07821
2 11.9581 8.26109 6.97665
2 4.50295 0.43194 1.28841
2 9.44757 6.99578 5.49479
2 4.22621 10.4396 13.0673
2 1.78211 4.57486 6.75083
2 8.71818 1.25367 12.819
2 1.03041 8.4153 5.86418
2 7.82517 10.7936 12.6935
2 10.528 4.15527 6.73941
2 4.43382 1.86591 13.109
2 10.7668 5.86373 4.10446
2 6.0532 10.0667 11.3596
2 1.23083 6.19206 3.69674
2 6.52108 0.530067 11.4883
2 1.44628 6.83136 7.63483
2 6.76512 1.99628 1.31994
2 11.3235 6.38345 8.03229
2 5.77106 10.5519 1.39893
2 8.95714 8.49669 7.66474
2 2.62261 11.0291 1.59686
2 2.88728 4.40714 9.38377
2 9.27388 1.5362 1.68181
2 1.02376 9.5781 8.77254
2 8.8897 10.4258 1.39841
2 10.8275 3.52923 9.35228
2 4.6638 2.28211 2.8318
2 2.81276 4.01409 4.38915
2 9.96736 1.56299 10.7371
2 10.0209 9.31211 3.72764
2 3.02185 9.88765 10.7365
2 10.3461 2.79997 4.39743
2 4.4214 2.41764 10.7042
2 5.82751 11.8996 6.09132
2 7.75534 9.30328 10.0429
2 0.986375 10.8641 0.497237
2 0.246573 0.424915 5.98074
2 1.08835 2.29947 0.445875
2 10.6301 12.7358 6.72206
2 0.822949 12.6568 2.44529
2 0.17217 12.6078 9.28214
2 12.6845 0.615768 12.8013
2 7.77787 0.402939 6.05829
2 12.145 1.77586 2.6535
2 6.22462 9.16375 8.14316
2 0.72775 9.4801 3.45085
2 2.76247 1.26802 10.6834
2 1.71542 2.20413 3.00777
2 2.09672 12.0307 9.77868
2 11.8452 10.7179 2.38964
2 11.1439 1.10288 8.58395
2 1.06541 10.3066 11.8487
2 3.27548 1.52623 4.82003
2 12.1596 2.40089 11.2779
2 9.17658 11.5849 3.17369
2 1.53678 -0.479744 11.8068
2 9.71496 0.636972 4.06871
2 1.55491 2.99166 11.6472
2 3.30556 11.936 5.65776
1 10.4943 7.56346 7.19579
1 4.21931 11.3935 1.17238
1 1.73618 5.24053 8.2701
1 7.93717 0.972027 0.90236
1 1.00454 8.41322 7.57814
1 7.35527 10.5196 0.960661
1 11.2189 4.80492 8.08518
1 5.14068 2.03483 1.1718
1 2.02339 5.24513 5.06706
1 8.14277 1.1309 11.3688
1 10.3666 7.53088 4.00617
1 4.414 10.4259 11.3192
1 11.0834 4.32114 5.01246
1 4.72039 0.962226 11.3353
1 0.82257 7.97236 4.40247
1 7.68321 10.687 11.0938
1 10.2144 10.4018 2.49765
1 1.58386 10.3292 9.98144
1 3.2807 2.6291 3.82781
1 11.2995 2.06576 9.75386
1 4.6938 10.9691 6.59808
1 7.50883 8.58568 8.63893
1 10.3517 1.75059 2.9928
1 2.84121 3.3388 10.4638
1 0.770271 1.22228 1.84051
1 12.0485 -0.0748776 7.55602
1 0.896373 10.677 2.29433
1 1.23795 0.416557 10.4496
1 0.50169 11.6202 12.7769
1 1.96446 0.480995 5.66841
1 0.621942 1.75981 12.3017
1 9.54064 0.164878 5.53744
96
 Atoms. Timestep: 4000
2 12.0415 7.18318 5.00069
2 5.00727 0.403019 11.6169
2 0.190664 5.20922 5.19535
2 7.63789 11.6012 11.1767
2 0.158255 5.61249 8.68003
2 8.51131 12.0647 1.13128
2 9.29203 9.0887 8.1192
2 5.31108 12.0841 2.24622
2 9.35656 7.97029 6.12481
2 3.36752 11.8151 12.5808
2 2.14322 4.51389 6.87704
2 9.00592 0.547903 12.5781
2 1.55451 8.24305 5.78705
2 8.09791 10.2004 12.5603
2 11.0631 5.32861 6.55701
2 4.86966 1.8224 0.330456
2 10.2774 5.95522 4.70865
2 5.56669 10.4004 11.6201
2 2.00826 6.38726 4.71483
2 7.49561 1.83668 11.585
2 2.7983 6.50013 7.76481
2 6.9452 1.4349 1.30799
2 9.83627 6.58609 8.70613
2 3.90091 9.28649 1.71592
2 7.20338 8.0919 8.12168
2 2.52814 11.5245 2.93954
2 2.40759 3.83313 9.26751
2 9.30953 1.99474 1.9621
2 2.03216 9.41082 8.48633
2 9.53346 9.85611 1.78395
2 10.5829 4.18802 8.97912
2 3.62296 1.104 2.66267
2 2.71043 3.74578 4.07176
2 9.31405 1.27656 9.83644
2 10.7382 8.36512 3.46054
2 3.51645 10.7938 10.4621
2 9.58035 3.72624 4.42158
2 4.21296 2.43233 11.2592
2 5.14154 10.0458 7.09205
2 7.45483 9.60193 9.53197
2 1.39523 11.3457 0.782754
2 1.73125 0.773891 6.29705
2 12.0735 2.21155 0.236138
2 11.692 12.413 6.05561
2 0.519456 0.789469 2.30638
2 1.05451 12.4337 8.30416
2 0.830197 0.801595 12.4562
2 10.3213 10.494 4.38484
2 11.2275 2.70993 3.2268
2 5.53065 8.73426 9.58216
2 1.36424 8.82333 3.48089
2 2.93639 1.11256 10.3044
2 1.38187 3.15511 2.28872
2 3.57502 11.4084 8.16859
2 11.956 11.4386 2.82529
2 11.5879 0.988458 8.42663
2 1.44387 10.1834 11.1841
2 1.97963 1.85404 4.15655
2 11.9203 2.25846 10.5725
2 6.27893 10.2685 1.74298
2 1.5116 12.2806 10.6453
2 9.76809 0.678636 4.24557
2 1.08955 2.96179 11.8145
2 3.58624 12.0965 5.27758
1 8.71912 7.76772 7.5952
1 4.07606 10.7902 2.302
1 1.90681 5.28053 8.46195
1 8.45102 1.06977 0.772643
1 2.70322 8.19754 7.15467
1 8.01289 10.4338 1.09216
1 11.182 5.58205 8.38656
1 5.36378 0.982516 1.95909
1 1.91045 4.89902 5.29066
1 8.30079 0.540017 10.7145
1 10.4665 7.54493 5.03642
1 4.39899 11.5322 11.7073
1 10.0837 4.75047 5.43624
1 5.78222 1.68827 12.1628
1 0.903338 7.58197 4.22887
1 7.15951 10.0064 11.0406
1 10.6925 9.90955 2.8588
1 2.23802 9.5369 9.99478
1 2.89758 2.5056 3.02183
1 10.7739 2.47162 9.26523
1 4.08117 11.055 6.60608
1 6.10657 9.20225 8.00002
1 9.55829 2.17613 3.83749
1 2.56951 3.00354 10.836
1 12.6333 2.48209 1.75509
1 0.0222486 0.552147 6.94561
1 0.954406 11.9424 2.23911
1 2.3441 12.2292 9.05284
1 1.55262 11.7628 12.2159
1 2.65575 0.720176 5.09063
1 12.3692 1.97651 11.9984
1 10.5608 11.9339 5.24468
96
 Atoms. Timestep: 6000
2 0.00203444 9.07702 4.97268
2 3.81063 1.52148 12.6444
2 0.269923 4.65567 4.86428
2 7.0833 0.33842 11.6366
2 11.7397 4.96554 8.49896
2 8.56179 11.4742 1.05515
2 11.1922 8.88902 7.23439
2 4.79609 0.608837 3.19696
2 8.81971 7.76088 2.81549
2 2.96009 10.9866 12.2919
2 1.62428 5.43703 6.58795
2 8.28682 1.79428 0.138212
2 1.61548 8.59261 6.2781
2 6.94545 10.4525 12.8719
2 10.3482 3.85807 6.36177
2 5.33204 2.54532 1.04716
2 10.6531 5.45872 4.10442
2 4.88763 11.6414 12.3005
2 2.38454 6.98352 4.40281
2 6.42837 3.2546 12.0059
2 -0.190034 6.63678 7.53783
2 7.30128 0.885885 2.48679
2 9.78137 6.14454 8.20981
2 4.21479 11.9001 1.27139
2 8.35913 8.89229 8.05743
2 2.73384 10.2254 1.25348
2 1.39595 3.90868 9.17148
2 9.49504 0.117575 2.4409
2 0.539656 8.86704 8.14502
2 9.15523 9.60621 1.48627
2 9.87994 2.88235 9.12853
2 4.20643 3.04585 3.39532
2 3.13449 4.128 4.79852
2 8.96436 1.39773 10.5777
2 11.073 8.05468 2.59866
2 11.9235 8.85518 10.562
2 10.6401 2.84374 4.10471
2 3.59597 3.78904 11.4777
2 5.7296 9.95216 7.80712
2 6.96704 10.8089 9.94263
2 0.315332 10.8904 12.58
2 2.1135 10.7235 5.50714
2 0.0397984 2.37753 0.65049
2 0.601485 11.9806 6.01663
2 1.01374 12.5593 1.55969
2 2.07101 0.981533 8.34296
2 0.588152 0.476164 12.1751
2 10.7899 10.3348 3.73
2 11.7578 1.53146 2.71722
2 8.41936 11.5608 8.17384
2 3.46561 8.52058 1.83162
2 3.3642 2.14471 9.88158
2 1.1045 2.42767 3.31987
2 3.79969 11.6135 9.00908
2 12.1419 10.5321 1.80303
2 11.4214 0.696229 8.19422
2 1.75881 9.26127 10.3811
2 2.82959 1.49139 5.47914
2 11.6307 1.8716 11.0466
2 5.99949 10.7923 2.15191
2 1.84604 11.8927 10.2499
2 11.4071 12.266 3.91804
2 1.91655 2.6597 11.4416
2 3.7157 12.0402 6.39341
1 9.79542 8.05673 7.79215
1 4.80608 11.535 2.67332
1 0.906862 5.0354 8.17062
1 8.36948 0.635949 1.2051
1 0.0541031 8.18244 6.78522
1 7.45839 10.2489 1.33334
1 10.2376 4.54194 7.90022
1 5.83421 1.91952 2.82909
1 1.93103 5.51034 5.03907
1 7.65045 2.02417 11.6854
1 10.0329 7.1502 3.54934
1 3.60164 12.3245 13.023
1 11.3229 4.0844 5.11562
1 4.93019 2.9676 12.6067
1 2.02601 9.02509 4.73323
1 6.25671 11.2918 11.4525
1 10.5289 9.88281 2.18742
1 0.718498 8.34713 9.80618
1 2.97497 2.61402 4.25486
1 10.5219 1.18088 9.8201
1 3.81021 10.524 7.63959
1 7.45122 10.3076 8.44385
1 10.424 1.04553 3.67997
1 2.51165 3.34464 10.1112
1 0.654166 1.60702 1.85614
1 0.248464 0.7594 7.58593
1 1.30382 10.9577 1.07619
1 3.05564 0.176792 9.54374
1 1.55331 10.5972 11.2212
1 2.54938 12.4879 5.73533
1 0.558434 2.3735 12.0532
1 12.2818 10.9994 4.51273
96
 Atoms. Timestep: 8000
2 12.359 9.53436 5.11017
2 5.65498 0.927872 10.963
2 11.659 5.66518 6.53287
2 8.16538 10.7209 11.5397
2 11.5699 4.70733 9.53135
2 7.58675 11.317 2.34657
2 9.62683 8.68783 7.81315
2 4.24909 1.08796 1.88309
2 8.08819 8.03822 3.40287
2 3.4902 10.7246 11.1284
2 1.2053 6.3027 8.40286
2 8.79837 0.22303 0.882313
2 0.524338 9.55407 7.25535
2 6.85093 9.82504 12.7545
2 9.42193 4.51219 7.47043
2 5.21782 2.60408 12.4693
2 9.71358 5.65255 4.59069
2 5.71628 10.2962 10.1401
2 2.11897 7.59567 6.39088
2 7.61407 1.58982 11.2994
2 12.1753 7.0068 11.1643
2 6.66571 1.70665 1.92485
2 6.53982 8.86278 7.52792
2 5.10273 11.3675 12.6607
2 8.79943 10.4368 7.11584
2 3.12283 11.178 2.81694
2 2.29125 4.94205 9.86136
2 8.50885 1.2965 3.50075
2 11.0164 8.95649 9.84448
2 7.82701 8.65996 2.00882
2 9.57173 2.38398 9.64547
2 3.64833 3.58838 2.15356
2 1.12965 4.61484 5.76991
2 10.2116 0.322587 10.8805
2 10.3782 8.10241 3.46198
2 10.8896 9.4581 12.7855
2 10.8941 3.32316 5.11515
2 4.96142 3.16641 10.0866
2 6.54472 10.9621 7.43476
2 8.01543 10.6377 9.48057
2 3.07347 10.9028 0.547415
2 2.77736 10.0066 5.08099
2 0.383994 1.93557 0.810245
2 12.0773 11.3144 6.05501
2 1.38479 0.793285 2.65938
2 2.13852 12.0397 7.39335
2 1.60332 0.283949 11.5335
2 10.482 10.2822 3.83358
2 10.7425 1.95357 2.84211
2 8.20866 1.27167 8.49048
2 9.16745 7.7517 5.86833
2 3.93821 2.13326 8.42421
2 0.63339 3.55025 2.95181
2 4.58957 0.329439 6.61914
2 12.1409 10.247 1.78113
2 11.5523 0.846315 8.07418
2 0.50962 9.9265 11.554
2 3.81586 8.31488 3.3138
2 11.7056 1.96719 11.1202
2 5.59894 10.9966 2.36709
2 4.3801 11.9319 9.50065
2 11.0191 0.514288 4.8321
2 2.0644 2.9212 11.3326
2 4.98773 11.2138 4.76927
1 8.34653 8.65569 6.76293
1 4.28511 11.6682 1.75296
1 0.744508 5.76507 9.8033
1 8.07134 0.803054 2.03813
1 11.2494 8.87133 7.98366
1 6.77856 9.93791 1.66788
1 9.88949 3.91076 9.13422
1 5.10217 2.51882 1.6922
1 1.23002 6.07031 6.66008
1 8.76781 0.150173 11.6718
1 9.22928 7.11066 4.21471
1 4.96871 11.531 11.1421
1 10.279 4.84698 5.87572
1 6.19678 2.41208 11.0543
1 1.49741 8.92324 5.97748
1 6.86689 9.53892 10.8026
1 10.7208 9.37956 2.19416
1 11.5474 8.50299 11.2263
1 1.45437 3.91129 4.33951
1 10.884 1.27824 9.47022
1 5.75808 11.7254 6.057
1 7.91086 11.5694 8.21405
1 10.0925 1.8325 4.27351
1 3.16178 3.25967 10.0331
1 12.2686 2.19864 2.39826
1 0.680194 11.354 7.77092
1 1.11053 11.1044 2.74647
1 3.75877 0.605032 7.91292
1 1.91364 10.8597 11.5968
1 3.90982 9.93334 4.02819
1 1.00228 1.74674 11.8395
1 11.7596 10.8499 4.60783
96
 Atoms. Timestep: 10000
2 11.8704 8.51679 3.84194
2 3.87445 1.03453 12.2392
2 11.3981 4.79817 5.23666
2 6.92623 0.263784 11.2874
2 11.8189 4.80108 8.65678
2 8.06085 11.918 1.93264
2 11.9597 8.5263 6.53027
2 4.69059 0.605522 2.85265
2 8.98632 7.7468 2.30741
2 2.19803 11.025 12.7168
2 0.8647 4.85885 6.9028
2 7.699 1.53465 0.569267
2 0.112827 10.601 7.67338
2 7.75568 10.8303 12.9227
2 9.55435 5.19705 6.51049
2 4.30037 2.66278 0.499621
2 8.9107 6.62114 4.00674
2 5.41981 10.7148 12.0341
2 0.631527 6.77952 4.7957
2 6.2257 2.58516 11.6646
2 0.571885 6.86073 9.396
2 6.31925 1.97172 2.30585
2 9.04158 10.7427 6.57132
2 3.86622 12.2964 0.928656
2 10.1205 9.56117 8.16461
2 2.81994 11.2254 5.04208
2 1.61019 3.82679 9.2928
2 8.42752 1.14591 3.48855
2 11.4447 8.23728 9.32247
2 8.20308 9.06402 1.8194
2 9.50057 2.80428 8.92301
2 4.07065 3.08568 3.36849
2 1.8902 4.38486 4.80761
2 8.94613 1.8247 10.886
2 11.4687 7.06584 2.07551
2 12.2064 7.28152 12.0895
2 9.34532 3.59914 4.19542
2 4.00637 3.18906 10.6234
2 7.27576 10.5138 7.90849
2 7.97595 10.4881 9.92447
2 2.63772 11.3919 2.83026
2 2.15028 9.13585 5.12792
2 0.872512 1.22593 0.786473
2 0.335885 12.3978 6.32467
2 1.36173 1.09429 3.30464
2 2.45402 12.0305 8.14162
2 0.56073 11.8299 11.6743
2 10.9388 11.252 5.0233
2 11.3234 2.35022 2.48591
2 9.42513 12.2463 8.62853
2 10.2387 8.54488 4.91172
2 3.66614 1.58145 9.18621
2 1.46132 3.23076 2.42054
2 5.06224 11.8389 8.39154
2 0.161164 9.25098 0.578931
2 11.7942 12.3838 9.02149
2 0.885134 9.32027 11.5599
2 4.27853 10.0821 3.40787
2 11.3134 1.04384 11.1311
2 5.46684 10.4272 1.41766
2 4.1668 11.5656 10.7243
2 11.1003 1.24722 4.67138
2 1.5931 1.99481 10.837
2 4.7692 11.0086 6.17919
1 9.82218 9.99365 5.27922
1 4.09694 11.5656 2.31437
1 0.890041 5.11031 8.68579
1 7.53418 0.978823 2.10483
1 11.7289 9.27163 8.11448
1 7.15271 10.3952 1.47127
1 10.2331 4.43164 8.0684
1 4.79811 2.21365 2.00627
1 0.569593 5.21008 5.34528
1 7.7696 1.53867 11.8724
1 10.3661 7.31089 3.39786
1 4.06678 11.772 12.4708
1 9.52396 5.08306 4.75982
1 4.68633 2.30686 11.751
1 0.621234 8.33311 5.18485
1 7.19452 10.9805 11.3637
1 11.7549 7.96965 0.705394
1 0.199351 8.05376 10.5371
1 2.4379 3.42161 3.70092
1 10.0852 1.37406 9.75345
1 6.01417 11.5983 7.11483
1 8.8591 10.6699 8.42039
1 9.90223 2.19993 3.5385
1 2.78826 2.78161 9.70308
1 0.478255 2.12464 2.31261
1 0.783147 12.005 8.05199
1 1.58029 12.015 3.96899
1 3.60247 12.238 9.34826
1 0.69336 10.5568 12.6746
1 3.73988 9.90598 5.38067
1 0.52956 0.896247 11.9471
1 12.1195 12.4563 4.77736
96
 Atoms. Timestep: 12000
2 11.9139 8.54214 4.47732
2 4.24711 0.339135 11.8602
2 12.4327 5.40088 5.12477
2 7.68497 12.4891 11.2712
2 11.7963 5.30112 8.52366
2 8.45982 12.0955 1.33769
2 11.5581 8.54991 7.01781
2 4.87981 0.411313 2.59285
2 9.47984 9.03436 3.27866
2 2.36328 10.4264 12.5768
2 1.36665 5.62728 7.22403
2 8.43986 1.85941 13.1056
2 12.0144 10.4641 8.11286
2 7.66344 10.2553 12.8093
2 10.2537 4.37899 6.79866
2 5.16285 2.46436 0.577933
2 10.2542 6.37307 4.36957
2 5.33034 10.3876 12.1001
2 1.17546 7.6131 5.61681
2 6.08979 2.33145 11.1078
2 0.726787 6.61275 10.5066
2 6.99749 1.48543 2.54088
2 7.4923 9.46514 5.22603
2 3.84504 11.3717 1.4336
2 9.53548 9.2583 7.43097
2 2.47602 11.0041 3.54528
2 1.61292 4.10889 9.54552
2 9.58489 1.65664 2.32844
2 11.5831 8.78544 9.56691
2 9.63947 9.51906 1.10394
2 11.3652 2.4893 8.95733
2 4.20036 3.12318 2.99201
2 2.40263 5.57436 4.21639
2 9.08488 2.16073 10.2995
2 11.0391 7.74539 2.16059
2 11.3019 7.72383 12.1407
2 11.1772 3.50368 4.37348
2 3.82762 2.33674 11.0663
2 6.50922 11.4207 7.78426
2 8.09955 11.1046 9.87727
2 1.57171 10.2237 1.33424
2 2.23273 9.60627 5.56785
2 0.422976 1.98574 0.0276555
2 11.5566 12.0749 6.4373
2 1.10659 0.149597 2.07336
2 1.52346 11.8563 8.42058
2 0.911055 12.1446 12.7052
2 9.20026 10.6344 5.54245
2 11.6372 2.13303 2.35586
2 9.10046 0.657825 8.52448
2 10.1263 8.22847 5.50791
2 2.55546 1.10096 9.58757
2 1.45141 2.65328 3.13447
2 4.03967 12.2377 8.52112
2 12.4372 8.98372 0.298755
2 11.261 12.5539 8.88707
2 0.443526 9.51808 11.2721
2 4.58717 10.9612 3.90237
2 11.8642 1.14056 10.4081
2 6.6733 10.69 2.05691
2 3.17872 11.4465 10.9841
2 10.6469 0.462226 4.02498
2 1.21238 2.13286 10.9655
2 4.10419 11.3657 6.28082
1 8.92981 9.12892 6.11814
1 5.1845 11.3055 2.46799
1 0.854276 5.71171 8.91187
1 8.09676 1.10848 1.57228
1 10.8585 9.16976 8.35398
1 8.22811 10.3599 1.36665
1 11.0741 3.96231 8.15721
1 5.24859 2.10533 2.27802
1 1.30319 5.98371 5.69586
1 7.91141 1.74083 11.4288
1 10.5783 7.86759 3.87536
1 3.84353 11.1186 12.754
1 10.6206 4.88017 5.34185
1 4.9161 2.06816 12.0604
1 0.424055 9.08781 5.72296
1 7.03115 10.7458 11.3586
1 10.9496 8.30232 0.610841
1 12.305 7.88316 10.9511
1 2.78076 3.82355 3.47686
1 10.3672 1.25501 9.5256
1 5.01666 11.6448 7.46543
1 8.06976 11.6559 8.34897
1 10.6126 1.9664 3.66038
1 2.55459 2.81902 10.147
1 0.845175 1.86401 1.78108
1 12.496 12.0113 7.90643
1 2.18224 11.4321 1.97187
1 2.65534 12.1452 9.35869
1 0.755393 10.3525 12.7722
1 3.41477 10.4797 4.97436
1 0.453143 1.11747 11.8669
1 10.2884 11.7437 5.22449
96
 Atoms. Timestep: 14000
2 12.0825 7.98611 4.62534
2 4.37955 11.8527 12.8424
2 0.801231 4.63673 6.22267
2 6.81819 12.0526 10.7539
2 11.7658 5.04689 9.6028
2 7.92622 11.8159 1.71947
2 12.0712 8.39033 7.3156
2 5.50617 0.0210729 3.01478
2 4.28252 5.38255 3.35147
2 2.13135 11.1077 11.9676
2 2.40695 5.54145 8.21137
2 8.24768 1.20511 0.1006
2 12.1358 10.3336 8.3914
2 7.1966 10.2382 12.1107
2 10.6448 4.64542 6.81571
2 5.37814 2.10839 1.77317
2 11.1539 5.72969 4.45121
2 5.09825 10.4183 10.8974
2 1.64551 7.45013 5.72843
2 5.95264 1.35248 11.8522
2 1.0399 6.46222 10.9143
2 7.50537 2.07727 2.85751
2 8.45555 10.0617 6.41346
2 3.53154 10.8733 1.57613
2 9.7263 9.84725 8.18819
2 2.00181 11.8372 3.62913
2 1.90257 4.12387 10.21
2 10.1168 2.26683 2.14925
2 11.9098 8.54798 9.98671
2 8.62255 9.04619 0.737037
2 9.64498 3.13294 8.23956
2 4.32686 2.55612 3.98699
2 2.79335 4.57983 5.05385
2 8.55706 1.5445 10.3941
2 10.4492 7.37631 1.59734
2 11.2839 7.59894 12.1369
2 11.1791 3.22715 5.15408
2 3.54409 2.29785 12.2808
2 6.5986 10.2711 7.10622
2 7.29103 10.2849 9.28066
2 0.699137 11.1777 0.836295
2 1.2349 10.3714 5.16776
2 12.4264 2.02081 12.935
2 12.4015 0.230639 6.54718
2 1.58756 1.10851 1.64838
2 1.71031 12.2481 8.95713
2 12.013 12.0864 11.4941
2 10.8465 11.1647 5.98839
2 12.3062 2.24561 2.25614
2 8.82587 0.238568 8.36265
2 9.84141 8.35632 4.68404
2 3.4982 2.1543 9.45271
2 2.03738 3.72555 2.20636
2 4.64104 12.3816 7.51588
2 10.9954 9.77939 12.0938
2 11.1224 1.13749 8.3713
2 0.962667 9.38051 12.0467
2 3.95274 10.3939 4.088
2 10.5272 1.74766 10.5317
2 6.03139 10.2615 1.5062
2 3.96551 12.1026 10.5252
2 11.1925 0.714752 3.69374
2 1.13537 1.89155 10.9926
2 3.90104 11.0729 5.99778
1 9.9115 9.55286 5.8014
1 4.86898 10.9203 2.5678
1 1.11418 5.17487 9.48667
1 8.50484 1.27949 1.79028
1 11.0762 9.12297 8.34575
1 7.46362 10.4139 0.798735
1 10.4859 4.69753 8.41797
1 5.80808 1.88853 3.37694
1 2.04647 5.81935 6.10765
1 7.60518 1.25447 11.5333
1 10.6124 7.37805 3.69647
1 3.70648 11.0237 11.5679
1 11.661 4.85849 5.49932
1 4.74636 1.46052 0.396397
1 0.557611 8.7348 5.92621
1 6.80791 10.429 10.692
1 10.395 8.68892 13.1389
1 0.522839 7.81747 11.3358
1 3.13337 4.15367 3.51366
1 9.76207 1.53442 9.01741
1 5.3349 11.1532 6.74205
1 8.09514 10.8922 7.95189
1 11.1758 2.35583 3.46655
1 2.66979 2.66234 10.9647
1 1.17999 2.56057 1.19419
1 12.48 12.3211 8.14279
1 1.77407 11.647 1.73266
1 3.46575 0.539404 8.9021
1 0.359271 10.9973 12.1484
1 2.61578 10.8821 4.86687
1 11.9595 1.43332 11.4283
1 11.5876 0.0700885 5.14343
96
 Atoms. Timestep: 16000
2 12.2185 8.39981 5.26552
2 4.52402 11.9961 12.0414
2 0.364791 5.66475 5.72976
2 7.18336 11.499 10.2849
2 11.7716 4.61375 8.47809
2 8.25928 0.178362 1.37338
2 12.4165 8.95829 7.79051
2 5.30218 1.15983 2.45062
2 0.421116 4.31464 4.08575
2 2.37704 9.82942 11.4554
2 1.91342 5.57193 7.62096
2 7.94856 1.61352 12.4266
2 12.2576 11.5305 9.71272
2 7.54865 10.4145 12.5586
2 10.507 4.3185 6.15842
2 4.63427 2.46037 12.8276
2 10.7944 6.30597 4.35612
2 5.42436 9.68713 11.3735
2 2.28292 7.79521 6.30199
2 5.90713 1.20776 11.8819
2 0.466581 6.60053 10.2603
2 6.52894 2.89708 1.86317
2 9.30268 9.29863 7.03185
2 3.70477 12.0449 2.21201
2 10.728 9.21299 9.12436
2 1.69108 11.144 3.71428
2 1.2886 4.21223 9.85216
2 9.20946 1.59882 2.54359
2 0.559017 8.7839 10.1657
2 9.53868 10.1222 1.07525
2 9.89714 2.00908 8.0548
2 3.60183 3.75649 2.15078
2 2.87186 5.46709 5.00218
2 8.88414 0.427932 10.2831
2 11.5973 8.23847 2.59007
2 11.3141 7.70244 12.79
2 10.6722 3.66988 3.59181
2 2.99294 2.16376 11.3738
2 7.5767 10.448 6.06249
2 8.18635 9.63102 9.72433
2 1.85476 10.8189 0.742683
2 1.74616 10.2211 6.22081
2 -0.374829 1.28632 13.508
2 11.72 -0.0925849 6.97188
2 1.18631 0.791677 1.86851
2 2.08957 0.36253 7.90942
2 12.3524 11.5634 11.9985
2 10.1331 11.1852 5.45443
2 11.9376 2.06557 3.41895
2 9.77339 11.2842 8.43944
2 9.3242 8.61638 4.65219
2 3.73924 0.633944 9.94889
2 1.3965 3.57187 2.26802
2 5.21212 10.8243 7.87647
2 11.9098 10.1591 0.415013
2 12.2251 2.16728 8.17026
2 0.863877 8.74658 12.1838
2 4.97923 11.6007 4.76539
2 11.0606 1.4549 10.0648
2 6.91311 11.2756 2.37628
2 4.161 10.7077 9.89572
2 9.8368 1.26092 5.07664
2 0.715933 1.8614 10.4281
2 3.70249 11.4547 5.40693
1 8.99635 9.89491 5.44953
1 5.55921 12.1178 2.99422
1 0.67926 5.50238 8.97578
1 8.05946 1.87553 1.45933
1 12.138 9.84184 9.15686
1 7.93822 10.8427 1.14138
1 10.8233 3.46293 7.73003
1 4.90734 2.9337 1.59015
1 2.05724 5.95329 6.18584
1 7.21046 0.741854 10.7554
1 10.9726 7.84459 4.224
1 3.99821 10.5637 11.3536
1 11.2592 4.82873 4.77703
1 4.25898 1.27367 11.6582
1 0.937997 8.96716 6.42106
1 6.9844 10.0256 11.028
1 11.2282 9.05017 1.15915
1 12.0358 7.76991 11.207
1 2.32293 4.44632 3.47381
1 9.99597 0.735009 8.87689
1 6.4384 10.7194 7.1711
1 9.40337 9.62993 8.54731
1 10.2492 2.19898 3.72742
1 1.95053 3.06486 10.553
1 0.590724 2.24393 2.02936
1 0.649766 0.609365 8.37738
1 2.08996 11.8215 2.12128
1 3.49868 11.643 8.78721
1 0.932788 10.1859 12.4763
1 1.9497 11.7955 5.32029
1 11.9435 1.08632 11.4657
1 10.5362 12.577 6.02461
96
 Atoms. Timestep: 18000
2 12.3903 8.81569 5.43646
2 3.31917 0.612989 11.0662
2 12.2789 5.01699 5.26313
2 7.86095 0.341061 10.9111
2 0.619546 3.5693 9.30629
2 7.23292 0.391887 1.53284
2 0.0275882 8.51416 7.89884
2 4.94891 0.769374 1.48417
2 0.509134 4.89033 3.18677
2 2.42582 10.4045 11.7043
2 1.40036 5.48629 7.93929
2 7.84158 2.31542 12.7683
2 0.311216 11.066 9.02986
2 7.13109 10.9661 12.8133
2 0.424468 3.12332 6.47097
2 3.42447 2.7198 0.312665
2 11.0484 6.7342 3.52196
2 4.97582 11.1866 11.3799
2 1.37813 6.55384 5.97227
2 5.82782 2.4733 11.005
2 0.451025 5.98588 11.1451
2 6.03176 2.70388 2.18024
2 8.2945 8.21517 7.38363
2 3.65695 11.0784 1.87721
2 10.4017 9.83508 8.63356
2 2.07168 10.406 4.16187
2 2.62426 4.86528 11.1549
2 8.80919 2.81797 2.26436
2 11.7345 8.64106 10.2193
2 9.31714 10.5358 0.496579
2 10.9044 2.44377 8.59634
2 3.30542 3.40799 2.34644
2 2.19033 3.95853 5.15292
2 8.94041 2.02833 10.4641
2 11.2369 9.29941 2.65786
2 11.0318 8.03949 13.076
2 10.6317 3.81476 3.27097
2 3.12408 3.01059 10.6242
2 7.32647 10.1161 5.83529
2 7.87628 10.3596 10.1278
2 1.77994 10.047 1.15618
2 2.14779 9.41907 6.20586
2 12.26 1.79243 0.926938
2 11.892 11.6454 6.56029
2 0.866961 12.1846 2.44767
2 2.54034 11.5597 6.99363
2 0.452396 11.7685 12.3532
2 9.75599 11.0992 6.4002
2 11.1696 1.32318 2.88464
2 9.5149 12.4182 9.03922
2 10.0458 8.61875 5.17597
2 4.52994 1.08588 8.78366
2 1.15468 2.36884 3.19611
2 5.3159 12.2067 6.85271
2 12.3624 9.76501 0.560172
2 0.605972 1.18288 8.57525
2 0.808164 8.77269 11.8095
2 5.83159 11.9441 3.91536
2 11.0027 1.10225 11.2343
2 6.26787 10.7626 1.57934
2 3.20776 11.7145 8.88999
2 10.1156 1.38331 4.76709
2 1.29155 2.50462 11.7102
2 4.62383 10.7073 4.8739
1 8.60023 9.49171 6.30557
1 5.12308 11.5774 2.20559
1 1.5258 5.2265 9.78963
1 7.52326 2.11228 1.29228
1 12.0041 9.7833 9.0454
1 8.05256 11.1808 1.19351
1 12.5611 2.59103 8.19891
1 4.10367 2.17051 1.62232
1 1.09358 4.81623 6.26696
1 7.38263 2.0574 11.3582
1 11.3897 8.33822 4.06475
1 3.44647 11.4014 10.9052
1 11.5717 5.14075 3.91487
1 4.39897 1.68116 10.2419
1 1.0478 8.34997 6.47516
1 6.90666 11.3889 11.2892
1 10.6268 9.31454 0.913861
1 12.1678 7.5014 11.8715
1 2.02003 3.84136 3.32562
1 10.1868 1.436 9.59366
1 5.96175 11.3367 5.52829
1 8.79443 10.767 8.83238
1 9.99107 2.34671 3.37338
1 2.55948 3.55211 12.3131
1 0.218082 1.22638 2.42312
1 0.862715 11.9473 7.71772
1 2.17506 10.9331 2.41306
1 3.83189 12.5673 7.78712
1 1.08599 10.2152 12.8638
1 3.10933 10.4717 5.6703
1 12.2646 1.22166 12.3208
1 10.5564 12.1015 5.36906
96
 Atoms. Timestep: 20000
2 12.1597 8.01561 4.97905
2 5.05744 0.0741722 10.2955
2 12.1124 6.25894 6.09333
2 6.70691 0.299445 11.5661
2 11.4137 3.60376 8.95117
2 8.0356 0.596425 1.03661
2 0.276802 8.18164 7.51927
2 4.68271 2.24929 2.42625
2 12.2984 4.99552 4.21734
2 2.91507 10.4311 11.2421
2 1.86753 4.05846 8.78493
2 7.95642 2.62931 12.7801
2 0.452467 10.6354 7.85167
2 7.8421 10.5369 12.3106
2 0.321437 3.90713 7.14673
2 3.5167 3.78826 0.367596
2 10.6958 6.34999 4.33488
2 6.00376 10.4426 10.4487
2 2.19637 6.23401 6.83955
2 6.53015 1.98976 10.472
2 11.7734 5.85773 10.812
2 6.20661 3.35326 1.32719
2 8.50808 9.79542 7.46086
2 3.8014 12.1877 1.86159
2 10.8143 10.281 8.69821
2 1.79223 10.9901 3.8957
2 1.32543 3.70252 11.336
2 8.5512 2.57278 3.04599
2 12.1637 8.07081 9.68018
2 9.69752 10.7775 0.980814
2 10.7674 1.63132 8.85358
2 2.65306 4.46875 2.6503
2 2.09535 4.58896 5.4371
2 9.46716 1.78622 11.2896
2 10.8489 8.69036 2.51396
2 10.9661 8.19033 12.6446
2 10.0357 3.81269 5.24559
2 3.78961 2.90687 10.8603
2 7.14966 10.3635 5.53006
2 8.37249 10.1248 10.1371
2 2.09664 10.0629 1.02098
2 2.00932 8.96792 5.76252
2 11.6475 1.08697 1.19448
2 11.5004 11.6523 6.12115
2 1.93111 0.689963 2.54532
2 2.2788 11.314 6.7168
2 1.2216 11.4495 12.659
2 9.12674 11.0852 5.33155
2 11.2677 1.5756 3.37795
2 9.69635 11.8939 9.50514
2 9.32003 8.3504 4.87378
2 3.5293 1.19401 8.2472
2 1.08998 2.60107 3.75295
2 5.0652 11.2726 7.22226
2 0.078355 9.74669 0.478888
2 0.108499 1.26303 7.3667
2 0.762594 8.41446 11.9994
2 6.6465 1.61793 2.21885
2 12.0429 0.688267 11.1423
2 6.22418 11.6319 1.33577
2 3.24285 10.8969 8.98222
2 9.86408 1.58919 5.07501
2 1.60387 1.73995 12.5382
2 4.20667 10.9532 5.2645
1 8.68155 9.74699 5.7689
1 5.12472 0.906552 1.80799
1 0.470613 4.34602 9.93967
1 7.87665 2.36301 1.59585
1 12.0873 9.28136 8.59412
1 7.99364 11.2378 1.16081
1 11.3675 2.66506 7.70095
1 4.33062 3.72888 1.89043
1 1.99507 4.56507 7.0294
1 7.86282 1.80783 11.4634
1 10.8261 7.9571 4.02994
1 4.39191 10.7912 10.5049
1 10.8717 5.10362 5.40519
1 4.71776 1.56486 9.99748
1 1.06008 7.63179 6.24371
1 7.22886 11.1314 10.9218
1 10.6906 9.50327 0.92607
1 11.7244 7.55345 11.3968
1 1.42796 4.29282 3.94289
1 10.6584 0.826232 10.2827
1 5.76618 11.2132 5.42486
1 9.31317 10.5534 8.73951
1 9.90743 2.68927 3.93392
1 2.4373 3.01942 11.9819
1 0.53522 1.50605 2.59153
1 0.537696 12.0109 6.95756
1 2.4835 11.3493 2.44027
1 3.46066 11.8243 7.57266
1 1.51653 9.90057 12.0822
1 2.603 10.5362 5.32731
1 0.494711 0.703987 12.6565
1 10.2257 12.2615 5.36513
96
 Atoms. Timestep: 22000
2 11.5917 8.79535 4.36952
2 4.60673 11.8941 10.5767
2 11.6569 7.12162 5.65985
2 7.08394 12.1384 11.1283
2 11.896 4.65805 8.98045
2 8.23328 0.52225 0.999423
2 12.0934 9.0869 7.31294
2 4.26816 1.3452 1.37398
2 0.199253 5.21802 3.78003
2 3.02628 10.1096 12.149
2 1.72487 5.444 8.1895
2 6.81848 1.70803 12.7297
2 0.568202 11.085 8.53652
2 7.14111 9.9886 12.2817
2 0.918558 3.52041 6.86658
2 3.42132 3.52468 0.198371
2 10.726 7.10477 3.56219
2 5.70217 10.26 10.1159
2 1.48114 7.14845 6.06748
2 6.02684 1.72955 10.023
2 0.561438 6.77609 10.4757
2 6.09792 3.12878 1.43045
2 9.02882 9.66954 7.86877
2 3.88641 12.1037 3.22885
2 11.0777 9.16555 9.2945
2 3.01791 10.187 3.96563
2 1.8287 4.11101 10.4105
2 8.83461 2.63025 2.47948
2 1.09664 8.98334 10.4428
2 9.37241 10.1067 0.541082
2 11.0614 1.66291 8.91282
2 3.57667 4.3897 2.73161
2 1.96756 4.36884 4.91641
2 8.79753 1.43933 10.8833
2 10.4429 8.98455 2.1222
2 10.9314 8.21804 12.2511
2 9.88854 4.34467 5.02268
2 3.18073 2.0203 10.6373
2 7.26645 9.78226 5.83288
2 8.54613 10.2893 10.4032
2 2.03746 10.9699 1.53604
2 1.77116 9.52993 5.39467
2 12.1078 1.37599 0.917309
2 12.391 0.16176 6.29024
2 1.05982 0.708238 2.95292
2 3.36983 10.7232 6.29579
2 1.03944 11.8382 12.6691
2 9.76751 10.8923 6.23751
2 11.1049 2.88841 3.28628
2 10.2369 11.3923 9.54466
2 9.50885 8.34337 4.98887
2 3.64987 0.939281 8.44921
2 1.15356 2.88646 2.69769
2 4.80669 11.0266 7.73671
2 -0.0419861 10.3207 0.649558
2 0.643873 1.90793 8.34212
2 1.12708 8.32911 0.191148
2 6.26665 0.984348 2.47987
2 11.1311 1.24572 11.6957
2 5.81864 11.1853 1.33238
2 2.96517 10.6017 9.39315
2 9.89512 0.993525 4.8732
2 1.15914 2.43369 12.0005
2 4.95046 9.17514 5.50494
1 8.75398 9.47152 5.97529
1 5.13122 12.3008 2.33338
1 0.787151 5.37947 9.6926
1 7.44507 1.81859 1.68742
1 0.294097 9.34133 8.70282
1 7.74087 10.9209 0.804783
1 12.0192 3.19265 8.30966
1 4.49519 2.95417 1.53981
1 1.779 5.05207 6.46474
1 7.13074 1.50529 11.0848
1 9.92369 8.43775 3.43973
1 4.06234 10.3177 10.7021
1 10.7359 5.89843 4.59536
1 4.36923 1.22555 9.91533
1 0.358004 8.5304 5.84786
1 7.04336 10.4389 10.9607
1 10.7781 9.3061 0.593888
1 0.252286 7.95198 11.7044
1 1.62377 4.3346 3.32145
1 10.1702 0.947906 10.1466
1 5.76432 10.0711 6.69743
1 9.67981 9.84428 9.34865
1 9.68308 2.93366 4.00541
1 2.56551 3.07968 11.4937
1 12.1242 2.03547 2.40314
1 0.984995 0.32136 7.78907
1 2.14225 11.7793 3.12583
1 3.22294 11.5398 7.68277
1 1.7762 9.96401 0.242832
1 3.29006 9.42135 5.2848
1 0.264957 1.02438 12.3389
1 10.8053 12.1471 5.45702
96
 Atoms. Timestep: 24000