96
 Atoms. Timestep: 0
2 0 7.95642 4.74695
2 4.63304 0 11.358
2 0 4.63304 4.74695
2 7.95642 0 11.358
2 0 4.63304 8.47514
2 7.95642 0 1.8641
2 0 7.95642 8.47514
2 4.63304 0 1.8641
2 10.7421 8.43088 6.61105
2 4.15858 10.7421 0
2 1.84736 4.15858 6.61105
2 8.43088 1.84736 0
2 1.84736 8.43088 6.61105
2 8.43088 10.7421 0
2 10.7421 4.15858 6.61105
2 4.15858 1.84736 0
2 10.5201 6.29473 5.04003
2 6.29473 10.5201 11.6511
2 2.06934 6.29473 5.04003
2 6.29473 2.06934 11.6511
2 2.06934 6.29473 8.18207
2 6.29473 2.06934 1.57102
2 10.5201 6.29473 8.18207
2 6.29473 10.5201 1.57102
2 10.1594 8.65935 9.20274
2 3.93011 10.1594 2.59169
2 2.43004 3.93011 9.20274
2 8.65935 2.43004 2.59169
2 2.43004 8.65935 9.20274
2 8.65935 10.1594 2.59169
2 10.1594 3.93011 9.20274
2 3.93011 2.43004 2.59169
2 2.43004 3.93011 4.01936
2 8.65935 2.43004 10.6304
2 10.1594 8.65935 4.01936
2 3.93011 10.1594 10.6304
2 10.1594 3.93011 4.01936
2 3.93011 2.43004 10.6304
2 2.43004 8.65935 4.01936
2 8.65935 10.1594 10.6304
2 0 10.703 0
2 1.88643 0 6.61105
2 0 1.88643 0
2 10.703 0 6.61105
2 0 0 1.872
2 0 0 8.48305
2 0 0 11.3501
2 0 0 4.73905
2 11.2706 2.31295 2.18973
2 10.2765 11.2706 8.80078
2 1.31887 10.2765 2.18973
2 2.31295 1.31887 8.80078
2 1.31887 2.31295 2.18973
2 2.31295 11.2706 8.80078
2 11.2706 10.2765 2.18973
2 10.2765 1.31887 8.80078
2 1.31887 10.2765 11.0324
2 2.31295 1.31887 4.42131
2 11.2706 2.31295 11.0324
2 10.2765 11.2706 4.42131
2 11.2706 10.2765 11.0324
2 10.2765 1.31887 4.42131
2 1.31887 2.31295 11.0324
2 2.31295 11.2706 4.42131
1 11.0086 7.83654 8.10972
1 4.75292 11.0086 1.49867
1 1.5809 4.75292 8.10972
1 7.83654 1.5809 1.49867
1 1.5809 7.83654 8.10972
1 7.83654 11.0086 1.49867
1 11.0086 4.75292 8.10972
1 4.75292 1.5809 1.49867
1 1.5809 4.75292 5.11238
1 7.83654 1.5809 11.7234
1 11.0086 7.83654 5.11238
1 4.75292 11.0086 11.7234
1 11.0086 4.75292 5.11238
1 4.75292 1.5809 11.7234
1 1.5809 7.83654 5.11238
1 7.83654 11.0086 11.7234
1 10.1088 10.1088 3.30552
1 2.48067 10.1088 9.91657
1 2.48067 2.48067 3.30552
1 10.1088 2.48067 9.91657
1 2.48067 10.1088 3.30552
1 10.1088 10.1088 9.91657
1 10.1088 2.48067 3.30552
1 2.48067 2.48067 9.91657
1 0 1.60471 1.57853
1 10.9848 0 8.18958
1 0 10.9848 1.57853
1 1.60471 0 8.18958
1 0 10.9848 11.6436
1 1.60471 0 5.03252
1 0 1.60471 11.6436
1 10.9848 0 5.03252
96
 Atoms. Timestep: 2000
2 0.246802 8.6962 5.60199
2 4.71854 12.6768 10.6543
2 12.4926 4.66971 5.13255
2 7.84209 0.115907 11.1519
2 7.66119 5.89395 7.59146
2 7.83134 12.7162 1.016
2 -0.0566078 6.94524 9.43433
2 5.47006 12.4695 1.66016
2 11.4371 8.29145 7.16312
2 5.08298 11.0202 13.0348
2 1.76184 5.13603 6.62573
2 8.18984 2.30594 -0.226438
2 1.70748 8.45919 7.79939
2 8.88819 10.8447 13.0762
2 10.1008 4.86142 6.5861
2 4.90545 0.799227 13.1093
2 10.3954 6.3204 4.8241
2 6.86466 10.2196 11.0164
2 1.73521 6.73087 5.31912
2 5.96668 1.89116 11.4733
2 1.98511 6.15594 8.90207
2 6.37292 2.08625 1.66826
2 9.55751 6.54352 9.03786
2 6.88858 10.7796 1.41126
2 10.8588 8.81867 9.47929
2 4.3915 10.2163 2.88113
2 1.83393 3.228 8.72859
2 9.4745 1.94986 2.53238
2 2.21697 8.61718 10.3526
2 10.0957 10.7388 1.81419
2 9.48103 4.03035 8.97679
2 3.65585 2.0233 2.28819
2 1.8179 3.3072 4.64314
2 8.44821 2.48629 10.8641
2 11.7217 8.04624 4.06047
2 4.28229 10.1359 10.3615
2 10.9241 3.39475 4.06314
2 3.39408 1.82831 10.5576
2 2.91334 9.15658 5.17945
2 9.41579 11.1814 10.3013
2 0.505728 10.4132 13.3154
2 1.03624 12.4219 6.57434
2 0.124041 1.89914 0.0176173
2 9.19039 -0.0985898 5.63222
2 1.24565 12.5454 1.27165
2 11.9826 11.4881 9.00565
2 11.8424 12.5958 12.354
2 11.978 12.3707 4.67559
2 11.8244 1.75344 1.63715
2 8.99236 3.07394 6.37854
2 2.41357 10.8163 2.81203
2 1.58892 0.352533 9.0311
2 1.58497 2.26341 2.33338
2 1.77754 10.9208 8.76806
2 0.0446243 10.2747 2.51693
2 9.72335 1.29361 8.5647
2 1.73545 11.0806 11.2325
2 1.94698 0.875631 4.45877
2 10.9582 2.24207 10.9825
2 10.433 10.6214 3.88674
2 12.1167 10.0423 10.945
2 10.6952 0.439536 3.35324
2 0.933294 1.88899 11.404
2 1.88923 11.5221 5.05815
1 11.052 7.42474 8.67872
1 5.37747 10.7962 1.20195
1 1.33878 4.79938 8.18699
1 7.97541 1.5377 1.51511
1 1.38673 7.60951 9.52889
1 8.60747 11.2146 1.1925
1 9.2781 5.26821 7.92499
1 4.90496 1.20056 1.53344
1 1.35427 4.92053 5.03771
1 7.63927 1.56809 11.8474
1 11.7211 7.85958 5.55652
1 5.31087 10.9 11.5081
1 10.8293 4.90341 4.88897
1 4.4528 1.36323 11.4956
1 1.87075 8.17195 5.9542
1 8.22137 10.9463 11.4121
1 11.4887 9.67461 2.89099
1 2.53573 10.262 10.0749
1 2.5322 2.19128 3.67441
1 9.82875 2.73055 9.90434
1 3.24081 10.6062 4.35227
1 10.8765 10.555 9.58174
1 10.9653 2.32262 2.94721
1 1.87245 1.90706 9.66637
1 0.729425 1.36909 1.41185
1 8.67955 1.0105 6.76591
1 1.04374 10.8342 1.45616
1 0.660441 11.9765 8.12187
1 0.198854 11.3998 11.9858
1 0.803428 -0.0856809 4.92689
1 12.127 1.5936 12.0637
1 10.0447 12.3479 4.37031
96
 Atoms. Timestep: 4000
2 12.0793 8.09314 4.05067
2 4.63284 12.6374 11.8229
2 -0.0385101 5.04064 5.69996
2 7.85367 12.5641 11.7315
2 9.3327 6.3959 8.71424
2 8.00479 12.7102 1.99316
2 0.259696 10.1121 7.83535
2 5.09584 12.4705 1.01844
2 11.3978 9.07254 6.02414
2 4.14144 10.3742 12.8555
2 1.50974 4.87165 7.01176
2 7.96899 1.95734 0.0924779
2 0.664532 6.27878 1.63998
2 8.51852 11.2013 0.0320073
2 10.756 4.94492 7.11526
2 4.46101 1.5798 -0.163474
2 10.9069 6.67918 5.57918
2 6.52784 10.3227 11.5216
2 1.46124 6.49302 4.55194
2 6.3163 1.75578 11.3487
2 3.38952 5.36999 8.99666
2 6.5296 1.74411 1.89232
2 11.4279 7.2158 8.60365
2 6.26449 10.5437 1.28753
2 10.8603 9.81167 8.19407
2 2.96642 10.8932 1.52857
2 1.8509 2.71843 8.56858
2 9.65954 2.37632 2.59106
2 2.35701 7.87007 10.6376
2 8.54707 10.0823 2.43331
2 10.721 4.38639 9.85168
2 4.11957 2.02942 2.00213
2 1.66622 3.33816 4.5757
2 8.91309 1.80376 11.1958
2 9.8875 8.8967 4.09009
2 3.93379 10.5274 10.207
2 11.075 4.23564 4.36591
2 3.23339 1.6066 10.8075
2 1.44087 8.67466 3.41835
2 9.28665 10.5556 10.7179
2 12.7534 10.8329 13.4294
2 1.45578 0.165702 6.34163
2 -0.00457513 1.67701 -0.207475
2 10.5511 -0.0327739 6.96584
2 -0.127526 -0.123543 1.38718
2 12.3395 11.8339 9.19051
2 0.163769 12.6193 11.9048
2 -0.0816876 12.374 4.54041
2 11.9052 2.37063 2.50011
2 10.2606 12.4782 9.20938
2 0.559241 10.3479 2.56866
2 1.3008 0.0409609 9.14195
2 1.54997 1.55284 1.77621
2 2.00044 10.7157 9.13739
2 11.1282 11.1458 1.97938
2 10.2404 1.39643 9.52704
2 1.46368 10.4194 11.2312
2 2.60681 1.15671 3.96733
2 11.2739 2.16741 11.6792
2 10.6444 11.6822 4.66648
2 11.7377 10.7372 11.0792
2 11.2066 1.3775 4.70518
2 0.563393 2.03638 11.0368
2 2.1663 11.6255 3.71045
1 12.0566 8.93503 7.52681
1 4.14991 11.2347 0.544665
1 2.58907 4.07712 8.10003
1 8.15376 1.36657 1.71566
1 3.15356 6.25932 10.5675
1 7.4852 11.5032 1.28034
1 10.8084 5.64129 8.65375
1 5.04368 0.990448 1.50392
1 1.43924 4.90417 5.32975
1 7.87335 1.14562 12.3414
1 10.936 7.98288 5.07574
1 4.75786 10.9382 11.4937
1 11.3741 5.0995 5.79932
1 4.47175 1.03274 11.7906
1 0.635164 7.21728 3.49669
1 8.06165 10.8782 12.0482
1 10.2275 10.6928 3.16472
1 2.51518 9.51698 10.3579
1 2.67045 2.55833 2.71445
1 10.4062 2.71247 10.2695
1 2.03764 10.0429 2.97927
1 10.6313 11.0384 9.46538
1 10.9873 2.72614 3.80626
1 1.73815 1.60996 9.83651
1 -0.121245 1.39319 1.41696
1 9.54849 0.608925 8.19943
1 12.6097 11.3317 1.62068
1 0.776209 12.0118 7.84387
1 0.0329871 11.1778 11.7439
1 1.50367 12.8025 4.55867
1 12.6015 1.24944 11.9246
1 11.5168 12.7339 5.23431
96
 Atoms. Timestep: 6000
2 12.7209 7.03622 4.42487
2 4.64845 0.0236685 12.5664
2 0.0667456 4.16093 5.02651
2 8.08597 0.301278 10.5446
2 8.52759 6.10945 7.88986
2 8.29259 12.7665 1.35451
2 12.65 7.9254 8.66586
2 4.82518 12.3443 1.43358
2 11.2616 8.42892 6.15511
2 4.93164 10.3644 0.194354
2 2.61139 4.24409 7.04619
2 8.41984 1.64025 12.6213
2 1.54602 7.60649 6.48935
2 8.72757 10.953 12.679
2 10.8268 4.5474 6.5532
2 4.79662 1.79633 0.507309
2 10.6809 5.89545 4.2705
2 6.41527 11.5355 11.0814
2 2.09252 5.84375 5.17373
2 6.08975 2.14714 11.1277
2 1.55946 6.05336 8.78856
2 6.50013 1.82939 1.93515
2 10.8278 6.82113 8.01227
2 7.00183 9.53428 0.889011
2 11.6463 9.76895 8.84845
2 3.45202 10.2278 2.42983
2 2.89429 3.34002 9.43742
2 9.43634 2.14952 1.60412
2 2.53138 8.84399 9.32853
2 9.22918 9.80689 1.78334
2 10.7145 4.47643 9.27457
2 3.91252 0.849139 3.31838
2 2.81227 3.55297 4.22319
2 8.58874 3.16041 10.6257
2 10.3686 8.68007 3.63413
2 4.11229 10.5828 10.6917
2 10.4593 3.73922 3.85461
2 3.11664 1.46202 11.4439
2 1.91831 8.57001 3.79043
2 9.64434 11.1257 10.5943
2 0.729218 10.8083 13.3634
2 1.24919 11.7855 6.91025
2 12.6828 2.65026 0.955835
2 10.2273 -0.298001 6.34693
2 0.0846869 -0.15938 1.52312
2 12.6215 11.5237 9.29105
2 10.708 1.3752 10.6963
2 11.9617 12.4286 4.90263
2 11.1107 1.63137 2.8667
2 10.1293 11.9872 8.5373
2 1.30612 10.4483 2.35491
2 0.893946 0.756291 9.64982
2 1.77333 1.64597 2.50885
2 2.36697 11.9841 9.36815
2 11.847 9.87564 1.65179
2 9.96619 1.94848 8.45747
2 1.90456 10.7364 11.2179
2 1.99091 0.601074 5.20132
2 11.1697 3.24877 11.2404
2 9.99114 11.4189 3.54096
2 11.8936 10.3209 11.0507
2 9.81976 1.53201 4.42779
2 0.564447 1.9912 11.3141
2 1.97214 11.2626 4.7809
1 11.3284 8.39806 7.89757
1 5.02524 10.7189 1.79601
1 2.36944 4.7154 8.37132
1 7.85552 1.75284 0.958896
1 1.54833 7.56744 8.35446
1 8.12126 11.0096 0.753678
1 9.99926 5.49224 7.64442
1 5.06352 1.07777 2.13495
1 1.88043 4.1135 5.35895
1 7.65181 1.5718 11.1985
1 11.1616 7.58992 4.66601
1 4.83946 11.3055 12.0493
1 11.3234 4.58054 5.03782
1 4.64973 1.57404 12.2774
1 1.58761 7.30054 4.81995
1 8.28349 11.5397 11.12
1 10.5593 9.94144 2.76702
1 2.78398 10.4157 9.77494
1 2.53166 1.79598 3.74308
1 10.1393 3.0912 9.95339
1 2.32026 10.4686 3.60069
1 11.0019 11.0912 9.80936
1 9.55543 2.56807 3.17253
1 1.82232 2.06735 10.3115
1 0.0935331 1.59432 2.15332
1 10.2969 0.584411 7.62301
1 0.36828 11.0591 1.44481
1 1.11702 12.2775 8.34416
1 0.542533 9.8288 12.1392
1 0.822973 12.4369 5.47173
1 12.0333 2.78074 12.5083
1 10.2582 12.4701 4.65941
96
 Atoms. Timestep: 8000
2 0.49613 7.95181 5.4996
2 5.03024 -0.093583 11.3443
2 0.74678 4.98098 4.992
2 7.94108 12.4031 11.2873
2 8.817 4.30085 8.44696
2 8.1485 0.95985 1.71681
2 0.345039 7.74461 8.45572
2 5.02602 -0.123857 2.01034
2 11.2823 7.87441 6.64287
2 3.68476 -0.246551 6.52028
2 2.97482 4.10068 6.64246
2 8.11094 2.23299 13.2897
2 2.45309 8.56701 6.56843
2 8.38968 11.4725 0.230391
2 10.33 4.42486 6.01717
2 4.77238 0.902762 13.3167
2 11.1506 6.14276 4.67389
2 6.81193 10.4876 11.2464
2 2.8667 6.31743 5.19672
2 6.71834 2.1778 11.5668
2 2.99964 6.4998 7.45615
2 6.13723 2.04192 1.47574
2 10.9703 6.01037 7.97686
2 6.42078 11.868 1.86854
2 10.4155 7.82315 9.40198
2 2.95439 11.3886 3.97835
2 2.93765 3.52148 8.97432
2 9.21415 2.70981 2.36831
2 2.97509 8.5353 9.39545
2 9.00061 10.7813 2.28063
2 10.0924 2.93547 9.0531
2 3.48846 2.73536 1.4273
2 2.76203 3.86671 3.50602
2 9.71101 1.416 10.8841
2 10.4102 9.11082 4.67459
2 4.18525 10.4253 10.3156
2 11.2172 3.78511 3.9881
2 4.17611 1.49979 10.2903
2 2.64557 8.56573 3.43024
2 9.18221 9.52707 11.9748
2 -0.154938 11.2778 13.2643
2 1.02806 12.5015 6.25947
2 -0.248727 0.724927 12.6943
2 8.58302 13.0846 6.86855
2 12.9177 0.284875 1.70223
2 -0.145443 12.1106 8.64963
2 11.4916 0.520539 8.40303
2 11.2321 0.274734 5.98658
2 11.1724 1.83555 1.38904
2 8.28551 10.2066 8.05483
2 1.39684 10.8327 2.11143
2 2.27115 0.799618 8.3641
2 1.13696 2.29025 1.88443
2 2.55882 10.8769 8.78412
2 11.4676 10.7453 2.52526
2 9.5211 0.247623 8.75673
2 1.65689 10.0141 11.6646
2 2.03464 5.47819 1.96843
2 11.8992 1.13098 10.2189
2 9.14114 11.7448 4.49999
2 11.5768 9.58294 11.1319
2 10.303 0.887271 3.86008
2 1.43646 1.67838 10.6349
2 12.2525 1.48619 3.79902
1 11.3929 7.5065 8.16191
1 3.9486 11.975 4.89824
1 3.50947 4.90425 8.03856
1 7.71929 2.64644 1.45233
1 2.05214 7.64047 8.25625
1 7.99126 11.9854 1.69447
1 10.3299 4.31739 7.65747
1 4.60003 1.36283 1.59958
1 2.29696 4.7332 5.15175
1 8.1722 1.20415 11.9752
1 11.1761 7.63036 5.15274
1 5.20214 10.868 11.2733
1 11.8306 4.70191 5.14424
1 5.01571 1.74661 11.658
1 2.33332 7.95138 4.87254
1 8.0717 10.647 12.0335
1 10.283 10.5122 3.65601
1 2.6188 10.1309 10.3181
1 2.01726 3.83761 2.13556
1 10.4535 1.27442 9.39054
1 2.6001 10.0395 2.82012
1 10.2947 8.80015 10.786
1 10.7771 2.50806 3.00305
1 2.77732 1.75557 9.7353
1 12.625 1.70389 0.890955
1 8.56828 11.9845 8.00976
1 -0.126683 11.2523 1.35646
1 1.38939 11.7574 7.73201
1 0.115807 10.3785 11.9971
1 -0.0421082 0.899603 5.58957
1 0.424555 0.554107 11.3134
1 9.51722 0.295368 5.25184
96
 Atoms. Timestep: 10000
2 11.9303 8.75967 3.8303
2 4.55617 0.275641 12.0679
2 0.722835 5.76942 4.42219
2 8.56927 2.39206 1.09622
2 0.327541 4.25843 8.12482
2 8.24189 11.8752 1.95385
2 11.346 8.00946 8.35498
2 4.1261 12.0092 1.87138
2 8.95997 7.5354 6.91994
2 5.9576 9.69997 2.70845
2 1.94706 4.69207 6.80423
2 8.73716 4.41373 0.747623
2 1.64679 8.44695 5.64251
2 7.15963 9.82357 0.863454
2 11.2631 4.64081 5.85004
2 5.14724 1.98365 0.621742
2 9.96952 6.05027 4.98648
2 5.61214 10.1389 11.8643
2 2.88545 6.44063 5.93923
2 7.11581 1.97792 11.5831
2 1.80787 7.0438 7.86759
2 6.8238 1.76004 2.48915
2 9.97924 5.44087 7.96126
2 7.20054 11.2131 4.17219
2 9.76244 7.90918 9.86999
2 3.37232 9.29337 1.10285
2 2.85995 4.75241 8.75244
2 9.72525 1.8829 2.75519
2 3.3556 9.43012 7.36854
2 8.902 9.40537 3.43204
2 10.1468 3.06227 8.42396
2 3.59943 2.03515 3.33811
2 2.95287 3.90313 3.96415
2 8.91158 2.83381 10.9195
2 7.54398 7.6296 3.77974
2 4.03889 10.4728 9.78023
2 11.2913 3.85148 3.18137
2 4.70528 2.93203 10.7912
2 1.53876 10.8325 4.44092
2 8.65011 10.0566 11.3137
2 12.3999 9.85002 0.54491
2 1.54434 1.3747 5.70268
2 0.398058 2.43826 12.6208
2 9.81124 11.7629 7.00506
2 0.79753 12.0604 1.16232
2 0.35275 1.11177 8.15611
2 11.5522 1.24973 8.97778
2 0.166625 12.2281 5.9451
2 11.9716 1.96048 1.41813
2 10.2545 10.8228 9.93002
2 1.81733 9.64833 2.51278
2 2.62118 2.28077 8.7005
2 1.7842 2.21895 1.19647
2 1.99313 11.6431 7.79353
2 10.8276 10.4855 2.60448
2 9.48479 0.787429 9.35996
2 0.75858 8.05635 0.409926
2 0.629755 2.87098 3.57492
2 12.0562 3.13036 10.4693
2 9.97216 10.7915 5.28742
2 10.6084 8.51606 11.6089
2 10.983 0.979748 4.5443
2 2.29052 3.3382 10.7587
2 0.318824 0.598309 3.41487
1 10.0977 7.16556 8.31541
1 4.64964 10.3123 1.71342
1 1.73884 5.5027 8.1567
1 8.30516 1.16087 2.23062
1 2.61494 7.8608 6.62337
1 7.70507 10.2772 2.7321
1 10.8914 4.08656 7.54756
1 4.91149 1.37284 2.35182
1 2.12281 5.11829 4.97093
1 8.54924 3.06306 12.3702
1 8.49129 7.01769 5.49444
1 4.70801 11.2192 11.0133
1 11.5719 5.1517 4.09101
1 5.27157 1.77094 12.1575
1 1.28279 9.09132 4.20369
1 7.10762 10.0285 12.2517
1 10.2988 9.59017 4.02158
1 3.33198 10.6835 8.21961
1 2.03548 2.94747 2.70834
1 10.4406 2.29226 9.80538
1 2.01219 8.57433 1.39507
1 9.76539 9.32291 10.5313
1 11.5245 1.85586 3.19086
1 3.61987 3.49366 9.53423
1 0.897825 1.16145 0.396749
1 9.54824 11.7537 8.65281
1 0.275884 10.8135 1.92677
1 1.68879 1.68692 7.55352
1 11.5055 8.69804 12.9928
1 1.19292 0.258062 4.68742
1 0.978656 3.1965 11.3202
1 10.861 12.2435 5.76365
96
 Atoms. Timestep: 12000
2 11.5652 8.44012 3.87465
2 6.16512 12.343 11.0119
2 12.0657 5.19776 4.8896
2 7.42598 1.78546 1.16544
2 0.18304 5.10961 8.34293
2 7.21012 11.4337 2.16422
2 6.72657 9.34747 6.2316
2 4.65186 11.473 1.1842
2 7.30235 7.45076 3.9839
2 6.7809 9.33974 1.09197
2 1.71512 4.40601 6.72323
2 8.70254 4.17913 1.10891
2 1.02641 8.18536 6.24102
2 8.58047 9.09092 12.8894
2 10.7163 5.92305 6.30313
2 5.0048 1.28071 12.6547
2 9.4761 6.06861 3.95654
2 8.22959 10.9196 10.3413
2 2.55413 6.3901 5.69006
2 7.43992 2.66576 11.886
2 2.03014 6.67908 8.20413
2 5.48955 0.848429 2.57528
2 5.68394 6.67073 5.79158
2 6.13466 10.2658 7.43996
2 0.389034 11.3937 8.48082
2 4.29041 8.74127 1.9893
2 2.90678 3.86395 9.65292
2 8.6417 1.66918 2.69599
2 3.65668 8.97103 7.14727
2 9.51219 9.51228 2.62359
2 9.92359 4.75323 9.15022
2 3.40032 2.34058 1.77688
2 2.28732 1.69626 4.02119
2 8.32843 5.07341 10.29
2 9.04349 5.56991 1.82966
2 5.08177 10.2424 9.50602
2 9.89754 3.55141 4.57035
2 4.99721 2.24361 10.4273
2 1.10538 11.4435 3.70649
2 10.3565 9.6358 10.3882
2 0.47186 10.5905 0.85661
2 3.28241 10.566 8.98024
2 12.3988 2.84401 12.6762
2 9.94528 0.397377 7.21045
2 -0.078113 0.600154 1.8127
2 2.28957 10.9179 11.0075
2 10.6523 1.25141 0.653773
2 12.3991 0.37106 5.92964
2 11.3044 2.69198 2.70323
2 10.7126 11.9683 9.54628
2 1.53029 9.01199 3.34492
2 2.35757 1.03853 9.33555
2 0.993799 2.57798 2.05465
2 3.49315 11.4822 7.06214
2 11.2265 10.6106 3.07684
2 9.12479 2.47427 8.93759
2 1.73566 8.9936 0.421963
2 2.45176 4.32195 3.97235
2 10.6818 2.79083 10.9043
2 11.1591 10.4613 5.29314
2 12.1815 10.3554 11.3056
2 9.92414 13.0214 4.91362
2 1.53403 2.9247 11.2463
2 2.88511 12.2039 5.88455
1 6.89769 7.84611 5.41741
1 5.10976 9.83103 1.04727
1 1.93243 5.00961 8.45568
1 7.22935 0.511504 2.73492
1 2.52658 7.61857 6.9232
1 8.15424 9.94965 1.41174
1 10.9568 5.65926 8.03724
1 4.53905 1.07862 1.35816
1 1.64454 5.08387 5.288
1 8.28174 2.80319 0.39591
1 8.5407 6.82005 2.84557
1 6.54557 10.8839 10.0956
1 10.2899 5.06422 4.92325
1 6.18962 1.86982 11.4974
1 0.846157 8.23013 4.42033
1 8.79716 9.36993 11.2815
1 10.3602 9.34663 3.85276
1 4.35364 10.2992 7.86639
1 2.23213 2.87424 3.0798
1 9.43604 3.51566 10.3795
1 2.37859 8.47453 1.89175
1 11.6126 10.5868 9.478
1 9.89349 2.01158 4.00974
1 2.85491 2.37641 10.8076
1 12.0602 2.29191 1.22797
1 9.84893 0.890479 8.67648
1 12.5041 11.2227 2.5001
1 2.2032 11.5624 9.43814
1 1.47419 10.2122 12.3633
1 1.69347 0.199536 4.89825
1 12.2998 2.69955 11.0235
1 10.9079 12.1014 6.02573
96
 Atoms. Timestep: 14000
2 11.9024 10.2551 4.02171
2 5.21951 11.6884 10.9521
2 12.9205 4.88061 4.44977
2 8.43536 1.49349 12.8132
2 12.6072 4.56832 8.54702
2 8.22331 11.835 0.568209
2 6.37889 9.16959 3.50972
2 5.42849 12.1032 2.74306
2 7.61161 7.55209 5.05535
2 7.05605 10.1571 1.92542
2 1.93247 4.11989 6.56502
2 6.09725 3.1123 12.519
2 1.03995 8.51264 5.52092
2 8.54306 9.7849 12.6034
2 11.0734 5.3091 6.97358
2 5.40278 0.896248 0.489055
2 9.64285 6.03684 5.48717
2 7.34494 10.4007 10.0386
2 1.97537 6.40031 5.38254
2 6.04553 0.87421 11.6727
2 1.6216 6.16329 7.70198
2 7.30762 0.809255 1.97607
2 9.62137 9.21177 3.8388
2 3.82245 9.56635 7.49514
2 0.554751 12.3386 11.2048
2 4.24761 9.52539 2.29921
2 1.04857 3.12847 9.01926
2 9.73168 1.52959 1.76263
2 3.11267 8.2038 7.36115
2 9.24457 10.2723 2.12462
2 10.0256 3.67979 9.68141
2 4.69476 2.22794 2.52372
2 2.56462 1.07656 3.02449
2 7.71652 1.92502 10.3017
2 7.09059 4.64847 6.38252
2 4.53219 11.6659 8.50059
2 10.2239 3.96422 4.43272
2 3.4479 0.105636 11.8052
2 12.9846 13.1227 2.84797
2 10.24 10.8782 11.285
2 1.36382 11.6919 0.757482
2 2.4886 11.3657 9.50527
2 0.220243 2.88901 -0.191621
2 10.4218 12.4215 6.50121
2 10.2743 -0.456702 0.97827
2 2.40685 11.3513 12.4219
2 0.815532 0.605159 1.07609
2 12.6011 0.959821 4.94041
2 11.8284 2.83798 2.1933
2 11.5413 11.3889 9.38594
2 2.02557 9.93873 4.11931
2 2.1159 0.921068 10.1418
2 1.78151 2.78981 2.1757
2 2.28309 11.0816 6.48569
2 11.7711 10.9312 2.21808
2 9.651 0.501969 8.81581
2 2.18102 9.56965 0.988625
2 2.77736 3.98355 3.95354
2 10.7011 1.79859 11.2214
2 10.1791 11.8551 3.85471
2 13.1959 10.0248 11.9311
2 10.1799 1.61189 4.35484
2 0.209024 2.48179 10.8237
2 1.25499 12.1318 5.52573
1 7.96045 8.52801 3.86652
1 5.55981 10.3956 2.71494
1 1.19853 4.27552 7.87742
1 8.81562 0.617323 0.814734
1 2.11856 7.23316 6.68138
1 8.59799 10.065 0.6371
1 10.8234 4.45248 8.54282
1 5.49816 0.718021 2.06974
1 1.71612 4.68666 4.99931
1 7.01104 2.23267 11.9509
1 7.98079 5.88138 5.75439
1 5.89544 11.2571 9.6535
1 11.2476 5.18232 4.96791
1 5.06848 -0.133102 12.4749
1 0.621918 9.84573 4.61906
1 8.63995 10.7602 11.2422
1 10.4006 10.5081 3.37358
1 3.19906 11.2091 7.787
1 3.23273 2.62908 2.9017
1 9.61085 2.04625 9.81425
1 2.77567 9.51966 2.66255
1 12.0558 10.8876 11.1036
1 10.4459 2.63449 3.2147
1 1.68365 2.36697 10.2296
1 0.39289 2.46178 1.4309
1 10.8591 12.4582 8.12179
1 12.0589 12.245 1.5316
1 2.15224 12.3638 10.9742
1 1.43557 10.387 13.1382
1 1.21457 0.302992 4.15431
1 12.14 2.06227 12.2817
1 10.5628 0.110284 4.89859
96
 Atoms. Timestep: 16000
2 11.5256 9.53083 4.47046
2 5.14196 11.3348 11.0822
2 11.9249 4.89776 4.20417
2 8.21972 1.99321 0.333776
2 12.1701 5.12879 7.99046
2 7.97882 11.8948 2.03338
2 6.05828 10.4318 4.11234
2 5.48656 11.233 1.68798
2 7.55363 8.29306 5.55776
2 7.15967 9.8305 1.57592
2 1.34023 4.08173 6.08555
2 6.43508 3.81737 0.168909
2 1.34198 7.941 5.19232
2 8.84103 11.4003 12.7252
2 10.8643 5.11687 6.11621
2 4.51723 0.882338 0.161472
2 9.2509 6.75801 5.04853
2 7.60179 9.84944 10.5951
2 1.95869 5.64719 4.35325
2 6.35813 1.41189 11.6271
2 2.92136 5.08263 8.0334
2 6.64842 1.36446 1.57607
2 8.73973 10.5154 4.66163
2 5.37123 10.2814 5.99691
2 0.9404 10.8238 10.1375
2 4.74976 8.93129 2.06486
2 1.57243 2.85952 8.59533
2 8.91616 2.4308 2.25888
2 4.12245 6.61025 5.56497
2 9.76205 10.0422 2.26947
2 10.0806 4.19329 8.97874
2 4.24927 0.997104 2.85787
2 2.29382 0.686048 3.65338
2 8.51858 3.38775 11.2314
2 9.52412 6.6549 7.41849
2 6.01933 10.7624 8.46271
2 9.56645 4.575 4.0072
2 3.20309 12.0775 11.0755
2 0.405856 12.3934 3.47376
2 10.4895 9.9346 11.2299
2 11.8129 10.4912 1.91491
2 3.56245 10.6268 8.83938
2 11.7397 2.97837 12.6643
2 10.0462 0.375202 6.93499
2 9.82492 0.53869 2.71005
2 2.52972 9.85595 11.5953
2 12.3144 0.611229 1.13458
2 12.0349 0.818586 5.18418
2 11.0499 2.65672 2.45581
2 11.0652 11.557 9.16836
2 2.33921 8.78343 3.70308
2 1.90428 0.077972 9.66418
2 1.12697 2.00171 2.00678
2 3.84334 12.6009 6.87782
2 1.45166 10.7938 4.64003
2 9.52416 1.95819 8.93733
2 2.6 8.94428 1.06625
2 1.71732 3.4857 3.39167
2 11.2863 3.04139 10.7041
2 10.4624 11.5415 4.61681
2 0.203728 9.83615 0.658588
2 9.6492 1.63406 4.67235
2 1.3888 1.76477 10.6393
2 2.1826 12.4155 6.28089
1 7.10955 10.016 5.36234
1 5.95762 10.0187 2.60707
1 1.22165 4.46418 7.74575
1 8.24935 1.11575 1.61666
1 2.49517 6.91165 5.4071
1 8.59159 10.5318 1.17803
1 10.5011 5.36871 7.591
1 5.09942 0.34915 1.75098
1 1.05519 4.39 4.55521
1 7.27923 2.67148 12.3846
1 8.58085 7.46585 6.36139
1 6.195 10.3004 10.0897
1 10.5603 5.8689 4.52968
1 4.87522 0.458813 11.7242
1 0.798065 9.2329 4.3373
1 9.06092 10.4108 11.2531
1 10.0362 10.0294 3.89318
1 4.68946 11.0918 7.40743
1 2.52833 2.03772 2.77101
1 9.71131 3.09388 10.0086
1 3.18535 8.4371 2.50677
1 11.6919 10.6715 10.337
1 9.63566 2.92172 3.70038
1 2.26259 1.66026 9.38105
1 12.1948 2.39255 0.966563
1 10.1467 0.636311 8.54704
1 11.3782 12.374 2.44584
1 2.63544 10.8106 10.1972
1 1.59256 9.53534 13.0028
1 1.15731 0.230166 4.78065
1 0.393574 2.81998 11.2709
1 10.4604 0.57884 5.36903
96
 Atoms. Timestep: 18000
2 10.8549 9.36119 3.95258
2 5.75636 10.1894 12.0275
2 0.634852 5.09081 5.00436
2 7.7648 1.6907 11.6975
2 12.2425 5.5751 8.13711
2 7.70281 11.4136 12.9358
2 5.39209 9.25417 3.8456
2 5.41378 12.0242 3.09245
2 7.30826 7.68668 5.395
2 6.51193 10.0385 1.78697
2 2.08678 5.06683 6.81389
2 6.00505 4.02119 12.138
2 0.871738 8.81209 5.63988
2 9.56665 9.21594 12.5577
2 10.3857 4.68518 6.48597
2 5.34935 12.5031 1.12322
2 9.95374 6.79217 4.5923
2 8.46284 8.70208 10.6681
2 2.84146 6.65596 5.45765
2 5.44041 1.11592 11.4725
2 2.66539 6.91759 7.64226
2 7.28897 1.3376 1.76331
2 7.7604 9.25102 4.2795
2 5.09903 8.81387 6.53125
2 1.66258 11.1937 10.1493
2 3.65343 10.5566 2.19387
2 2.97458 4.69724 9.05653
2 10.3518 2.14242 2.63263
2 3.40686 8.86594 6.19028
2 8.52638 9.52488 2.25027
2 9.65199 5.02997 9.09618
2 4.84952 1.92922 3.52061
2 11.354 1.56263 6.51962
2 8.05689 3.36358 10.6213
2 9.46483 6.97687 7.35749
2 6.41554 8.79663 9.55347
2 10.7384 4.4166 3.80877
2 3.82135 11.2043 11.1089
2 11.9085 0.824574 3.47566
2 11.087 10.3478 10.4023
2 10.3488 11.3931 2.52345
2 3.79773 8.8494 9.26799
2 0.783259 2.47858 12.0253
2 9.11032 0.406551 7.30069
2 9.72669 0.629811 1.00793
2 1.86045 9.17697 10.9091
2 0.298363 1.2354 1.45166
2 6.80102 0.980531 6.26824
2 12.2243 3.29259 1.809
2 11.9579 0.0578917 8.58126
2 1.56264 9.8217 3.56034
2 4.98285 3.21889 9.77992
2 2.80546 2.64791 1.56881
2 6.2338 7.02791 8.16648
2 11.8945 11.1469 5.58089
2 9.72366 2.11629 8.9031
2 1.08843 8.7944 1.00481
2 2.46002 3.45128 4.53968
2 10.4714 2.706 10.6504
2 8.7054 10.8518 4.99539
2 11.5341 8.22753 11.4102
2 10.0119 0.688767 5.16881
2 1.79844 2.82585 10.2828
2 5.29595 1.49051 6.39653
1 6.05573 8.88259 5.3635
1 5.37133 10.3671 2.78901
1 1.70068 5.7295 8.46011
1 8.1802 0.885724 13.0372
1 2.2111 7.95769 6.32251
1 8.18606 10.0641 0.790653
1 10.2888 5.78247 7.89864
1 5.84911 1.1984 2.28225
1 2.17989 5.1536 4.9167
1 6.57636 2.57857 10.7958
1 8.81335 7.22521 5.74425
1 6.84735 9.2692 10.9536
1 11.0252 5.46886 4.83567
1 5.13415 11.759 12.0418
1 12.3272 9.79407 4.71723
1 10.1152 8.99406 10.9304
1 9.35631 10.2055 3.75705
1 5.45632 8.4344 8.34863
1 3.35449 2.62865 3.38913
1 9.46635 3.51421 9.87302
1 2.42025 9.20877 2.43413
1 12.2873 11.1657 9.74467
1 10.5469 3.62951 2.28218
1 3.44477 2.9036 9.45232
1 1.21948 2.44542 0.875755
1 10.5782 1.22431 7.98347
1 10.8764 0.81525 1.97486
1 3.08183 10.2367 9.89786
1 0.711189 8.53828 12.0131
1 11.5528 0.633091 5.13949
1 12.1659 2.08836 10.6468
1 8.48318 0.290711 5.61679
96
 Atoms. Timestep: 20000
2 11.669 9.14638 3.9297
2 6.26151 10.2925 11.14
2 11.0736 4.47172 4.5571
2 7.10376 0.563153 0.594524
2 11.8993 5.81542 8.21675
2 8.48151 10.8329 0.715669
2 5.50628 9.5886 4.10983
2 4.65657 11.8521 2.33072
2 7.26924 7.28719 5.03731
2 6.5976 9.34847 2.09851
2 1.29894 5.23579 6.57375
2 4.89349 3.28501 11.7577
2 2.58377 8.45447 3.33708
2 9.03907 8.29431 0.315231
2 9.84824 4.57734 7.11385
2 6.19421 2.14185 1.43991
2 8.8614 5.85534 5.66584
2 8.81003 9.21036 10.4411
2 1.68387 5.53455 3.636
2 6.21329 1.3373 11.3898
2 2.92223 6.67148 7.67294
2 8.59786 2.11934 1.25258
2 9.78801 8.66926 5.29435
2 5.17345 8.89865 6.26859
2 2.25104 11.637 9.4074
2 4.27432 9.55637 0.946458
2 2.03773 5.5071 9.66951
2 9.79825 3.90729 1.50504
2 4.31468 7.30599 4.20972
2 9.5816 9.19109 3.17338
2 10.0412 5.308 9.89242
2 3.73281 2.27955 3.28504
2 1.65357 0.952092 7.22612
2 7.60567 3.80879 11.2594
2 9.23918 7.22759 7.67469
2 6.49588 8.90031 8.84089
2 8.71601 3.56191 4.10458
2 4.07339 11.6006 10.512
2 0.326507 0.485053 4.25974
2 11.8418 11.4848 8.54013
2 9.76845 11.6821 4.42173
2 3.81101 10.0994 8.37126
2 12.2824 3.08026 12.5482
2 9.6442 0.524499 7.76693
2 10.1884 0.61849 1.63541
2 1.95948 9.00977 10.0287
2 11.3344 2.06793 2.59456
2 9.10292 10.0836 8.11463
2 7.61889 3.95783 0.786427
2 11.4776 1.77491 9.41683
2 2.992 7.02355 1.93051
2 3.94303 4.26551 11.824
2 1.044 3.59816 1.7875
2 4.23657 7.69009 8.16724
2 2.01517 10.4614 5.28838
2 8.85246 2.68783 9.29787
2 1.72396 8.14366 12.3344
2 1.90175 3.25223 4.05418
2 10.5173 3.09479 11.2322
2 9.69247 10.5086 6.18578
2 11.3637 9.04206 11.2373
2 11.6792 11.3329 6.13522
2 1.82632 3.23205 10.1103
2 7.49986 5.34917 2.59007
1 5.62982 8.05445 4.8409
1 4.99587 10.3747 2.14373
1 1.42707 6.04093 8.13047
1 8.82424 0.471902 0.836669
1 2.91627 6.79351 3.46944
1 8.44622 9.2867 1.8962
1 10.0019 6.01419 8.44452
1 4.99556 1.57914 2.55595
1 0.870905 4.37713 5.00345
1 6.3883 2.86742 12.3633
1 8.68491 7.44523 6.06024
1 7.3124 9.60232 10.2533
1 9.65321 4.44029 5.30978
1 5.71262 11.8196 11.3539
1 1.5765 9.36476 4.06772
1 9.88958 8.43969 11.4913
1 10.2432 9.91218 4.58374
1 5.10171 9.00574 7.92462
1 2.61378 3.3561 2.60376
1 9.30289 3.82365 10.537
1 3.32115 8.04763 0.747079
1 1.08889 0.533697 8.81369
1 8.45107 3.7598 2.39535
1 2.97063 4.38126 10.57
1 11.4569 3.50622 1.34205
1 9.91723 1.82882 8.51336
1 10.7064 0.639127 3.30546
1 2.97435 10.2519 9.83125
1 0.893195 8.42998 11.187
1 1.33224 12.1639 5.68586
1 12.0228 2.53288 10.9498
1 10.5141 11.1956 7.5995
96
 Atoms. Timestep: 22000
2 11.3112 8.74082 5.22685
2 6.65376 11.7498 9.78473
2 11.3611 4.3335 5.24103
2 6.3268 11.8723 3.04175
2 11.4913 6.0063 7.76371
2 8.73814 10.7777 2.34398
2 5.34873 8.44145 2.92528
2 4.71308 10.9415 1.80567
2 6.95125 7.33789 4.77364
2 7.08572 9.14249 1.33653
2 2.0476 5.24281 6.45918
2 5.31844 4.22036 11.7212
2 1.81658 7.90301 4.21633
2 9.70164 10.2885 12.2507
2 9.00058 5.29124 6.90915
2 5.45285 2.03465 1.49045
2 9.0416 6.1421 4.95935
2 8.99397 10.8459 10.2107
2 1.94946 5.37408 3.90676
2 5.64118 1.96379 11.5594
2 1.85712 7.55465 7.00412
2 7.6064 2.06174 2.96206
2 9.07854 8.48176 4.9046
2 5.61841 9.21803 5.6125
2 2.09725 0.921521 8.98734
2 4.33478 8.46763 0.383049
2 2.13635 5.36899 9.1194
2 10.1133 3.03675 2.34842
2 4.27937 6.90678 4.14278
2 9.74018 8.48635 2.42671
2 9.53951 5.14232 9.83429
2 3.39311 12.8148 3.34534
2 2.02243 0.652014 6.56416
2 7.72731 3.02178 11.7039
2 8.51536 7.12611 7.5527
2 6.66392 11.3249 7.68087
2 9.20809 3.79042 4.24621
2 4.12788 11.4868 10.6609
2 0.557045 0.787903 4.92285
2 11.8075 11.468 7.33527
2 10.5152 10.4561 3.78373
2 4.27152 10.7707 8.37601
2 12.0561 1.84628 0.757036
2 10.0541 0.953988 7.83134
2 9.31674 0.494011 4.24338
2 2.74508 9.81691 9.27862
2 10.9991 0.670478 3.07665
2 10.7071 9.98536 8.85605
2 7.63072 3.37876 1.46173
2 11.5355 2.50027 7.69133
2 2.93896 6.45009 1.73204
2 3.99131 4.5668 11.2639
2 1.16461 2.12412 2.67588
2 4.3408 11.2298 6.19911
2 2.25368 9.75115 6.43876
2 8.91612 3.30266 8.90929
2 2.30222 7.56047 11.4383
2 1.90442 2.94135 5.03487
2 10.5235 3.11613 11.7066
2 8.43911 10.7377 7.69305
2 12.2502 9.21804 10.909
2 10.5512 10.9209 5.90785
2 1.14315 3.80202 10.7128
2 8.09651 5.0176 2.46515
1 5.60735 8.03927 4.42367
1 5.22982 9.49472 1.58325
1 1.48863 5.93257 7.80314
1 7.93552 12.0745 3.3413
1 2.87439 6.6938 3.44039
1 8.7643 9.61644 1.19169
1 9.59212 5.96292 8.11748
1 4.78069 0.799005 2.41906
1 1.22206 4.46379 5.2569
1 6.18875 3.30351 12.6853
1 8.44603 7.35225 5.93608
1 7.74863 10.7387 9.2237
1 9.70599 4.65064 5.43852
1 5.57066 0.409904 10.9706
1 1.25253 8.42883 5.62148
1 10.7185 10.4428 10.5121
1 10.2287 9.02595 3.97097
1 5.38863 10.3398 7.00908
1 1.79728 1.64275 4.19841
1 9.01781 3.68435 10.686
1 3.17108 7.36448 12.6443
1 0.907536 1.10408 7.74494
1 8.19262 3.40377 2.95093
1 2.69646 4.42684 10.3186
1 11.2008 2.05774 2.26117
1 9.6909 2.49348 7.71164
1 10.8199 0.00644892 4.67409
1 3.26899 11.4335 9.3185
1 1.96396 8.73823 10.2212
1 2.70423 11.2559 5.95824
1 12.1283 3.04153 12.055
1 10.1861 10.8619 7.35885
96
 Atoms. Timestep: 24000