96
 Atoms. Timestep: 0
2 0 7.95642 4.74695
2 4.63304 0 11.358
2 0 4.63304 4.74695
2 7.95642 0 11.358
2 0 4.63304 8.47514
2 7.95642 0 1.8641
2 0 7.95642 8.47514
2 4.63304 0 1.8641
2 10.7421 8.43088 6.61105
2 4.15858 10.7421 0
2 1.84736 4.15858 6.61105
2 8.43088 1.84736 0
2 1.84736 8.43088 6.61105
2 8.43088 10.7421 0
2 10.7421 4.15858 6.61105
2 4.15858 1.84736 0
2 10.5201 6.29473 5.04003
2 6.29473 10.5201 11.6511
2 2.06934 6.29473 5.04003
2 6.29473 2.06934 11.6511
2 2.06934 6.29473 8.18207
2 6.29473 2.06934 1.57102
2 10.5201 6.29473 8.18207
2 6.29473 10.5201 1.57102
2 10.1594 8.65935 9.20274
2 3.93011 10.1594 2.59169
2 2.43004 3.93011 9.20274
2 8.65935 2.43004 2.59169
2 2.43004 8.65935 9.20274
2 8.65935 10.1594 2.59169
2 10.1594 3.93011 9.20274
2 3.93011 2.43004 2.59169
2 2.43004 3.93011 4.01936
2 8.65935 2.43004 10.6304
2 10.1594 8.65935 4.01936
2 3.93011 10.1594 10.6304
2 10.1594 3.93011 4.01936
2 3.93011 2.43004 10.6304
2 2.43004 8.65935 4.01936
2 8.65935 10.1594 10.6304
2 0 10.703 0
2 1.88643 0 6.61105
2 0 1.88643 0
2 10.703 0 6.61105
2 0 0 1.872
2 0 0 8.48305
2 0 0 11.3501
2 0 0 4.73905
2 11.2706 2.31295 2.18973
2 10.2765 11.2706 8.80078
2 1.31887 10.2765 2.18973
2 2.31295 1.31887 8.80078
2 1.31887 2.31295 2.18973
2 2.31295 11.2706 8.80078
2 11.2706 10.2765 2.18973
2 10.2765 1.31887 8.80078
2 1.31887 10.2765 11.0324
2 2.31295 1.31887 4.42131
2 11.2706 2.31295 11.0324
2 10.2765 11.2706 4.42131
2 11.2706 10.2765 11.0324
2 10.2765 1.31887 4.42131
2 1.31887 2.31295 11.0324
2 2.31295 11.2706 4.42131
1 11.0086 7.83654 8.10972
1 4.75292 11.0086 1.49867
1 1.5809 4.75292 8.10972
1 7.83654 1.5809 1.49867
1 1.5809 7.83654 8.10972
1 7.83654 11.0086 1.49867
1 11.0086 4.75292 8.10972
1 4.75292 1.5809 1.49867
1 1.5809 4.75292 5.11238
1 7.83654 1.5809 11.7234
1 11.0086 7.83654 5.11238
1 4.75292 11.0086 11.7234
1 11.0086 4.75292 5.11238
1 4.75292 1.5809 11.7234
1 1.5809 7.83654 5.11238
1 7.83654 11.0086 11.7234
1 10.1088 10.1088 3.30552
1 2.48067 10.1088 9.91657
1 2.48067 2.48067 3.30552
1 10.1088 2.48067 9.91657
1 2.48067 10.1088 3.30552
1 10.1088 10.1088 9.91657
1 10.1088 2.48067 3.30552
1 2.48067 2.48067 9.91657
1 0 1.60471 1.57853
1 10.9848 0 8.18958
1 0 10.9848 1.57853
1 1.60471 0 8.18958
1 0 10.9848 11.6436
1 1.60471 0 5.03252
1 0 1.60471 11.6436
1 10.9848 0 5.03252
96
 Atoms. Timestep: 2000
2 12.9616 7.15459 5.15745
2 4.31053 12.7911 11.5447
2 12.6424 4.72746 4.93421
2 8.09403 -0.0885085 10.8364
2 12.6817 4.83035 8.12524
2 8.057 12.2112 1.51782
2 0.145858 8.54774 8.13431
2 4.3842 12.6278 1.51872
2 11.3904 9.17281 6.45098
2 4.94617 11.4838 -0.192633
2 0.89386 3.45079 6.7821
2 7.84057 1.27725 12.9409
2 1.55886 7.80246 6.23366
2 7.2283 9.23241 3.08025
2 10.9356 4.87737 6.14184
2 4.44212 1.50751 13.6282
2 10.8377 6.81758 5.42103
2 6.16172 10.9258 11.8934
2 1.63492 5.29169 4.84427
2 6.08933 0.809254 11.1988
2 2.02079 6.10377 8.19855
2 6.49257 1.23027 1.36183
2 11.4228 6.96691 7.99441
2 6.51686 10.9407 1.79434
2 11.0407 9.5137 9.07564
2 3.55007 10.7415 2.64914
2 2.13665 3.42254 8.93374
2 8.47818 1.87392 2.20278
2 2.5646 9.00201 9.18975
2 9.24191 10.4663 2.55956
2 10.2467 4.40499 9.23007
2 3.70089 1.31912 2.50096
2 1.18249 2.81317 3.79534
2 8.65575 2.29616 10.4496
2 10.837 9.23606 4.14448
2 3.66572 11.1524 10.5393
2 10.1749 4.24415 3.0974
2 3.02653 1.7644 11.191
2 2.24603 8.54162 4.2784
2 7.66841 11.2466 9.04073
2 -0.0753094 10.9973 -0.0348951
2 1.61093 11.9064 7.46184
2 12.7553 2.23611 -0.13405
2 11.5927 12.8961 6.51431
2 12.548 12.727 1.01215
2 12.6718 0.384024 8.47797
2 -0.0977378 0.1239 12.7179
2 0.677323 -0.426967 4.65937
2 11.1136 1.98333 1.60672
2 10.9613 12.3011 9.40853
2 0.901029 10.259 2.04123
2 1.94944 0.861456 9.29257
2 0.94762 1.15536 2.16142
2 0.970318 11.6334 9.52373
2 11.1991 10.8042 2.08798
2 10.46 1.73302 9.00337
2 1.41213 11.3162 11.5993
2 2.9382 0.00170717 4.81353
2 11.2108 2.75471 11.5015
2 11.5803 11.6579 4.31568
2 12.1407 10.7172 11.1829
2 10.9449 1.1213 3.73902
2 0.857781 2.46179 11.3643
2 2.46295 11.2159 4.40818
1 11.8399 8.68517 8.02658
1 4.88251 11.1296 1.49969
1 1.13137 4.37069 8.12222
1 7.84963 0.584112 0.830267
1 1.67677 7.72408 7.76121
1 7.87071 10.5069 2.55477
1 11.1965 5.17238 8.02647
1 4.64344 1.08294 1.24873
1 1.13769 3.63497 5.19832
1 7.6162 1.46217 11.2249
1 11.6113 8.31964 5.25351
1 4.57508 11.3295 11.9536
1 10.9018 5.32467 4.53508
1 4.66336 1.14204 12.0377
1 1.40866 7.12278 4.78692
1 7.17237 11.5231 10.6473
1 10.4778 10.635 3.51087
1 2.28967 10.4055 9.93443
1 2.3202 1.99869 3.00551
1 10.173 2.96907 10.1743
1 1.90313 10.0987 3.13715
1 11.19 10.8306 9.90685
1 9.97561 2.22622 2.89438
1 2.08779 2.25965 10.0267
1 12.6095 1.38461 1.30697
1 11.1225 0.229149 7.92901
1 12.7887 11.156 1.42092
1 1.09228 -0.183713 8.56083
1 -0.0987821 11.6115 12.3547
1 1.8422 12.1991 5.49662
1 12.7156 1.84686 12.2098
1 12.1264 -0.268591 4.88211
96
 Atoms. Timestep: 4000
2 12.5656 7.99484 4.93571
2 4.85183 11.3846 11.8052
2 -0.075511 5.01815 3.53307
2 9.33575 9.35954 10.6808
2 12.6812 5.30335 7.98105
2 8.18641 0.503679 1.06861
2 11.2789 8.72789 8.94258
2 4.18174 -0.0726913 0.937176
2 10.264 8.97057 6.48897
2 4.85486 10.0325 0.592305
2 2.20625 4.39215 7.47
2 8.52571 2.1451 12.4798
2 0.700823 8.13362 7.16891
2 8.79335 11.1275 13.1113
2 11.1413 5.6293 5.90997
2 5.0426 0.992495 12.7221
2 10.6363 7.03862 3.74918
2 7.01711 8.83983 11.6979
2 2.03553 6.28466 5.40818
2 11.25 1.34739 11.8764
2 1.81442 6.46145 8.74023
2 6.09072 2.52047 0.651888
2 10.3877 6.11676 7.99872
2 6.5608 11.2397 1.50005
2 8.52097 7.63761 8.73068
2 3.78919 10.9002 2.44656
2 1.24455 3.64424 10.0939
2 8.157 2.93724 1.756
2 1.46457 8.92028 9.65172
2 9.00103 11.1475 2.11145
2 10.2316 3.4605 7.75198
2 3.24573 2.46223 1.62331
2 1.93557 3.43714 4.6995
2 10.1056 2.86094 10.4367
2 9.99055 9.4419 3.62948
2 4.088 9.50249 11.2276
2 10.639 4.65911 2.63259
2 2.95016 0.960204 11.4047
2 2.39418 8.8563 4.92694
2 6.42129 8.29083 9.04516
2 0.571845 11.5685 0.00581869
2 1.81867 11.9485 7.51192
2 12.4228 1.23491 0.483279
2 11.3944 11.7039 7.3949
2 12.582 0.358746 2.2527
2 0.267374 -0.140086 9.50673
2 12.6782 12.1435 11.766
2 0.0107865 12.6281 5.4945
2 10.5307 2.84539 1.41305
2 11.2654 11.1651 9.95755
2 0.904511 10.8232 2.634
2 2.39274 1.14727 9.46388
2 0.196217 3.05254 2.29043
2 2.80484 10.9306 9.15045
2 11.6482 11.4584 2.93848
2 10.8318 1.03075 9.38142
2 2.01745 10.6636 11.1778
2 2.62322 3.39347 2.29108
2 7.71373 2.72311 8.8735
2 10.1705 11.5055 5.06527
2 12.2615 9.93427 11.3903
2 11.0473 2.37691 3.46919
2 0.923252 2.01439 11.6604
2 2.08294 11.2629 4.75341
1 9.91835 7.62225 7.78926
1 4.79143 11.4034 1.39408
1 1.16943 4.54343 8.70471
1 7.65401 2.06485 0.280844
1 1.18175 7.97429 8.60575
1 7.88408 11.6144 0.881343
1 11.1974 4.89849 7.42096
1 4.47677 1.85032 0.45751
1 2.23833 4.79168 5.71099
1 10.1189 2.59616 12.206
1 10.8573 8.55914 4.87418
1 5.55934 9.77622 12.4335
1 11.3577 5.45222 4.28849
1 4.4131 -0.00222821 11.4453
1 1.16168 7.78519 5.41259
1 7.72318 8.16482 10.3141
1 10.1376 11.0981 3.46133
1 2.85376 9.64891 10.1789
1 1.17027 3.90763 3.18667
1 9.42674 2.37712 8.97122
1 2.30728 10.1173 3.48088
1 11.246 9.56728 10.2726
1 9.17561 4.00705 2.24653
1 2.3476 2.42464 11.0089
1 11.9659 2.01282 2.137
1 11.6069 12.6122 9.18316
1 -0.115993 11.503 1.64567
1 1.83563 12.4495 9.08946
1 0.716863 10.7923 11.9791
1 1.35007 11.9653 6.05152
1 12.4675 0.803597 12.3458
1 11.289 12.4842 5.89678
96
 Atoms. Timestep: 6000
2 12.4965 7.90305 5.15667
2 4.24258 12.7024 12.0942
2 12.7042 4.46075 3.36498
2 10.2358 9.56679 11.3302
2 0.398008 4.93782 7.68511
2 8.11189 12.5301 1.82594
2 11.3641 9.7321 9.28012
2 2.66626 11.6413 3.39151
2 10.2602 8.6562 5.65572
2 3.26025 11.5998 0.402464
2 2.97135 4.48066 6.46816
2 8.86455 1.88464 13.3788
2 2.34246 8.33344 6.92661
2 6.22875 11.7242 0.197071
2 12.2801 4.79236 5.90545
2 4.34851 1.77154 -0.291327
2 10.8133 6.15153 4.23169
2 8.46107 10.2804 13.2382
2 2.34558 6.51825 4.94399
2 11.4087 2.19197 -0.0763784
2 3.03808 6.03806 8.63838
2 6.91024 2.1401 1.32478
2 10.9587 7.11155 7.48034
2 2.34782 11.3527 4.8014
2 10.1718 10.5375 6.9062
2 2.2509 9.81032 2.45742
2 1.92111 3.44477 9.02514
2 8.71306 1.71341 2.99869
2 3.82152 8.05943 9.56619
2 8.19053 10.2547 2.2211
2 11.3533 5.12381 8.64524
2 5.16787 4.08382 12.8944
2 2.44966 4.03391 3.79738
2 10.4348 4.05865 11.0638
2 9.7263 8.21885 3.46735
2 4.59092 10.1303 11.8424
2 10.3808 3.11863 4.54828
2 3.70152 1.55742 10.0184
2 1.33073 7.87964 3.77958
2 9.63773 8.30867 0.858761
2 11.3428 11.8393 13.1963
2 1.08409 11.9999 6.70182
2 0.678568 1.03247 0.756125
2 8.04117 12.3499 3.88144
2 11.4371 0.101149 1.75355
2 12.0057 0.493313 7.80802
2 1.49038 11.9321 11.9236
2 12.9518 10.0147 6.9977
2 10.2412 0.224199 4.73077
2 10.2683 11.8818 8.83684
2 12.8585 10.0258 1.89679
2 0.540073 1.42536 9.19261
2 0.272158 2.14133 2.67015
2 0.869362 11.1169 9.25901
2 10.5712 10.3741 1.67265
2 10.2699 2.26768 9.60804
2 2.95861 9.9115 10.3674
2 2.18161 2.55507 1.77499
2 8.98471 4.24564 8.51325
2 9.87912 10.4298 3.7076
2 11.0084 11.761 11.8452
2 10.7295 2.08816 2.8588
2 1.15035 1.28952 11.1882
2 0.564075 10.2282 4.44461
1 11.1102 9.29403 7.40787
1 2.82908 11.2661 1.72723
1 2.1651 4.69125 8.06828
1 8.34755 1.54378 1.50852
1 2.83014 7.86893 8.36311
1 7.6468 11.1041 1.05937
1 11.7146 5.71628 7.21737
1 5.60503 2.65003 0.527411
1 2.90937 5.10674 5.00827
1 10.2768 2.80891 12.1705
1 10.7877 7.91221 4.46118
1 4.91292 11.255 12.9237
1 11.4986 4.75262 4.31726
1 3.71125 1.52164 11.7672
1 1.35515 7.6525 5.59948
1 9.78707 8.89672 12.6749
1 9.422 9.27365 2.23308
1 4.415 9.33274 10.4881
1 1.3177 3.56962 2.78677
1 10.2241 3.99565 9.53884
1 0.71176 9.42063 3.22013
1 10.5049 10.9748 10.3273
1 9.86058 1.62787 4.36269
1 1.96388 2.06009 9.79996
1 11.7906 1.66138 1.60662
1 10.4489 0.673028 8.28433
1 11.812 11.266 1.53562
1 0.682976 12.4922 8.39083
1 1.92678 10.8716 10.6004
1 1.11895 10.8431 5.90703
1 1.64055 0.682175 12.5875
1 9.3256 11.549 4.75186
96
 Atoms. Timestep: 8000
2 0.560819 7.89492 5.53895
2 3.72974 0.492296 13.0343
2 11.4966 4.18123 5.69297
2 9.29168 0.254846 10.4291
2 11.7068 6.12291 8.74087
2 5.95243 2.50711 0.215046
2 11.1959 8.9732 6.34435
2 6.33353 7.95428 1.28886
2 12.2796 7.57704 4.48007
2 3.84195 10.1053 0.9296
2 1.2648 5.49287 7.38107
2 8.92326 3.73424 0.187402
2 2.81421 8.86334 7.23243
2 5.82312 11.3195 13.203
2 9.27809 5.06327 7.40321
2 5.42272 2.46781 11.1836
2 10.8754 6.03572 4.7799
2 6.94648 12.4976 11.6771
2 2.90811 4.47988 5.51833
2 10.8503 2.70244 1.41553
2 1.03795 7.5584 8.90145
2 6.96335 3.65473 12.169
2 10.2857 7.49718 7.77992
2 7.39249 5.58822 4.77142
2 9.94099 10.6271 8.56398
2 3.33064 7.60982 2.06237
2 1.23385 5.07349 10.7274
2 8.42293 2.19279 1.57005
2 1.78367 10.1685 9.68478
2 11.2742 6.98537 2.66905
2 9.05606 4.86516 9.41447
2 5.43507 3.88842 9.57319
2 0.692803 2.9417 6.57927
2 9.68339 2.93842 11.6637
2 0.545926 5.3849 2.68862
2 3.35479 10.82 11.4949
2 8.79934 5.3779 5.14516
2 3.12125 2.96579 12.5048
2 3.05196 6.66509 4.84777
2 7.95568 2.58554 10.042
2 11.9337 11.4649 0.356606
2 8.37362 6.37436 2.25557
2 0.417368 2.1796 0.961755
2 8.33977 11.1307 0.613346
2 12.4452 0.147852 1.79693
2 0.475514 1.38464 8.79462
2 11.8994 0.497153 12.0897
2 12.5344 9.11523 8.34891
2 8.56257 12.1519 2.74655
2 11.1802 0.211078 9.25259
2 2.2445 5.84853 2.74822
2 2.16883 2.91017 10.0356
2 12.423 1.87984 4.09287
2 2.24912 0.277377 10.5343
2 10.9704 10.9565 2.35015
2 10.8783 2.48334 9.68048
2 0.536998 10.9572 11.3587
2 0.423129 3.85582 4.72387
2 11.376 1.85565 6.82965
2 9.48787 9.03324 2.25324
2 11.0282 10.9459 11.1257
2 8.454 1.40034 4.28374
2 0.783022 2.99191 12.1281
2 5.26961 5.78703 3.19681
1 10.9765 9.19134 7.88026
1 4.62125 8.71857 1.38006
1 1.00222 5.73402 9.2248
1 7.47762 3.18012 0.402522
1 1.31369 9.09601 8.57999
1 7.43667 11.4072 12.7212
1 9.91873 5.97853 8.62257
1 6.63353 3.52764 10.3705
1 2.12555 3.83228 6.71842
1 10.2822 3.14936 13.2225
1 12.0318 6.19376 3.61694
1 4.12698 11.5587 12.9915
1 9.90827 4.64493 5.97475
1 4.57706 1.89241 12.4523
1 2.17819 8.10766 5.65506
1 7.90847 0.920268 10.6943
1 9.73654 7.16429 2.14422
1 2.07774 11.4863 10.8024
1 11.9256 2.66287 5.4354
1 9.47017 3.22789 10.1165
1 3.64394 6.60006 3.40241
1 10.2628 11.8415 9.74876
1 8.30897 1.04432 2.65937
1 2.22936 3.84461 11.4257
1 11.9846 1.65233 2.28037
1 11.5754 1.46241 8.52123
1 12.648 11.4394 1.91474
1 1.79577 1.5546 9.67179
1 11.917 11.5524 12.2279
1 7.02962 6.17077 3.17116
1 0.0221782 1.9936 12.7575
1 9.17057 10.5721 2.07944
96
 Atoms. Timestep: 10000
2 5.02432 0.627589 6.46356
2 5.05711 0.656907 12.0641
2 11.1623 3.85307 6.01901
2 9.36137 12.4834 10.0281
2 0.0505411 6.47933 9.65878
2 5.49906 2.60962 13.34
2 0.442604 5.17838 5.60504
2 1.77573 11.3295 1.0675
2 11.2755 8.32737 9.34167
2 3.99523 12.0236 0.464217
2 1.67691 11.2499 8.79503
2 8.22567 2.04723 -0.106034
2 2.7458 8.23584 7.30375
2 5.60153 11.1189 12.792
2 12.1104 5.69057 7.52599
2 6.07212 3.23386 10.9104
2 12.0618 6.02571 4.17475
2 7.11727 12.0161 10.7809
2 12.7427 11.8422 5.63906
2 9.90148 3.65316 0.483392
2 1.93971 7.18129 9.76513
2 8.50284 2.98339 11.8692
2 0.15827 10.8147 10.9602
2 8.47826 6.45704 5.17045
2 11.4973 10.537 9.83653
2 5.07259 11.6315 2.95866
2 1.95979 4.44079 11.0269
2 6.73692 1.12659 2.05403
2 2.86661 9.70453 9.69615
2 11.1905 4.35236 1.98536
2 10.5575 6.34119 10.0527
2 9.08184 4.2861 10.1862
2 11.8801 1.48373 4.99685
2 11.351 3.96053 10.4337
2 0.524681 6.73898 2.02182
2 3.24802 11.5812 11.3955
2 9.80782 6.23617 5.68366
2 3.25952 3.08743 11.7499
2 2.17291 7.52351 4.67217
2 7.7698 1.77251 9.78452
2 -0.166197 -0.119175 13.2134
2 7.00645 7.57805 2.38815
2 12.6521 2.341 1.65919
2 8.11765 11.3498 0.23138
2 10.612 1.7381 0.418438
2 0.181421 -0.0671524 8.18551
2 1.73634 0.87097 0.314282
2 0.817633 8.80651 9.31922
2 8.53234 -0.0362991 2.21046
2 10.4176 0.60258 8.87391
2 1.07838 8.00659 2.13068
2 1.41991 1.80384 10.0137
2 10.9096 2.55116 3.27692
2 1.16791 1.37387 6.53471
2 10.7173 12.1555 1.11196
2 9.68271 1.10217 7.801
2 1.63959 10.9246 12.311
2 9.05716 1.5923 4.54682
2 9.82731 1.88011 6.43134
2 9.20823 10.3361 1.89646
2 11.212 12.8992 11.8259
2 0.109921 9.52925 7.52041
2 1.64337 3.22299 13.0103
2 3.1502 9.91639 3.18539
1 12.2841 9.22602 10.5171
1 3.69283 11.1954 1.94265
1 1.54199 5.6789 10.0753
1 6.7533 1.26258 0.175647
1 2.67382 8.55351 8.77393
1 7.19233 11.2792 12.5481
1 11.6401 6.68809 8.7338
1 7.74278 3.3574 10.2809
1 0.0153256 0.495439 5.26265
1 9.56486 2.43419 12.7681
1 12.3415 5.75909 2.49494
1 4.42384 11.9958 12.4857
1 11.6886 5.4867 6.02485
1 4.85001 2.35708 11.9102
1 2.59979 6.85922 6.10802
1 7.79154 0.150138 9.95941
1 8.10903 8.97501 1.70459
1 1.87788 10.6711 10.7792
1 10.4991 2.36594 4.86911
1 10.2 5.01821 11.0994
1 2.17207 8.60598 3.6614
1 10.9079 12.3718 10.2293
1 7.7465 0.829874 3.41278
1 1.61136 2.89536 11.387
1 10.9796 2.79978 1.62094
1 0.20374 11.1042 8.17747
1 11.3491 0.0480556 -0.0616582
1 0.846439 1.50485 8.26376
1 1.34043 12.1677 13.455
1 7.60012 7.02214 3.8746
1 1.0772 2.27517 0.872556
1 9.35402 11.7624 1.75832
96
 Atoms. Timestep: 12000
2 1.5483 1.58915 2.54598
2 4.91319 1.45134 0.264739
2 10.8632 2.68412 6.65585
2 9.43798 1.45694 8.74821
2 1.85662 7.34339 11.6897
2 5.87424 3.22234 0.663101
2 8.91701 4.75494 9.02275
2 0.154409 9.61706 1.47907
2 11.8027 8.1542 8.9881
2 2.85922 0.185565 1.8038
2 6.06639 7.18345 7.43403
2 7.95629 5.29339 2.19971
2 1.39238 7.21651 5.86302
2 4.54173 11.0741 0.0907232
2 11.3351 5.34599 7.786
2 5.85728 3.50511 11.0976
2 3.06888 4.18876 4.27433
2 6.18857 9.20058 11.5363
2 3.10498 3.28513 5.40221
2 10.9885 4.31102 1.17716
2 2.48101 6.32758 8.95739
2 8.85884 3.60653 12.1109
2 1.19264 10.7508 9.67818
2 8.71653 5.54345 5.27462
2 11.7061 11.0941 8.95409
2 2.75989 0.975575 5.22897
2 2.40762 4.44424 11.0176
2 7.30961 2.73944 3.01081
2 11.708 10.8828 3.64293
2 0.287423 4.95096 3.05506
2 9.60473 6.83627 8.21424
2 7.6604 5.35107 10.5389
2 0.595058 2.20996 5.36258
2 7.86856 8.02666 9.8517
2 9.98978 8.39967 0.734695
2 3.47044 12.1554 11.7464
2 9.73001 4.50591 6.01394
2 3.66119 3.41102 12.2658
2 1.90525 9.12723 4.07631
2 8.31846 2.23416 9.74903
2 11.1191 11.0688 12.667
2 9.38546 7.54345 3.16052
2 11.6465 2.46721 2.09188
2 7.17007 10.8569 0.93516
2 10.3261 1.88229 12.7799
2 5.31144 8.71095 8.87758
2 0.217268 12.2466 1.27764
2 1.09804 8.76067 7.97201
2 7.97446 0.238644 2.85692
2 11.9812 1.51451 8.50428
2 10.6865 7.6152 12.6091
2 1.93877 2.53492 10.4426
2 11.5205 3.1143 4.16222
2 1.592 2.15406 7.61016
2 9.02889 -0.0877897 0.415922
2 10.2619 5.45103 2.99418
2 1.15435 11.4714 11.9771
2 9.85939 1.80875 4.27985
2 11.2531 0.442073 5.73775
2 9.51647 10.5092 2.42869
2 10.0501 12.3586 10.6039
2 3.80985 7.04373 5.54711
2 1.08514 2.25843 12.8165
2 1.28227 11.2003 4.18562
1 0.194898 9.64764 9.10384
1 2.36629 0.354701 3.56049
1 2.67075 6.03465 10.579
1 6.96785 3.58722 1.79504
1 1.85553 7.26632 7.46803
1 6.05529 10.4853 12.6059
1 11.2292 6.88636 8.29158
1 7.63642 3.54822 10.8036
1 1.96478 2.19928 6.10746
1 10.0702 3.44835 0.0885327
1 2.14553 5.1743 3.26281
1 3.81861 12.684 0.434602
1 10.218 4.14293 7.56554
1 5.06906 3.00855 12.4133
1 2.65601 7.57784 4.17962
1 6.38945 8.27643 9.99861
1 10.4297 8.80114 2.56441
1 2.2782 11.0195 10.9733
1 11.3224 2.01243 5.24002
1 8.60156 6.62079 9.56694
1 0.501045 9.83955 3.26882
1 10.8723 0.379581 9.12533
1 8.26574 1.39228 3.94312
1 2.04021 3.18398 11.8532
1 11.3532 4.12973 2.93354
1 4.8133 7.95203 7.0812
1 10.2586 12.4584 12.3899
1 0.699437 2.6177 8.9404
1 0.148251 11.0346 0.328866
1 8.87631 6.00282 3.65795
1 0.572442 1.58604 1.22513
1 8.35576 11.6107 1.76091
96
 Atoms. Timestep: 14000
2 11.6782 1.90749 2.40545
2 5.99111 1.84689 1.25864
2 10.8566 3.52709 7.54796
2 12.0112 1.43845 7.81166
2 2.38479 6.70228 10.1903
2 6.76706 4.20256 2.1288
2 8.96689 6.15243 8.24088
2 2.33105 10.4998 3.56962
2 12.192 8.71729 9.99985
2 3.50184 0.560876 1.56804
2 3.31903 4.34117 5.139
2 8.25356 5.4923 2.46064
2 10.7576 6.19923 6.25044
2 4.7767 10.8989 1.72438
2 8.69719 1.62724 8.91715
2 5.67819 3.71863 11.8735
2 12.1059 7.30232 11.5234
2 5.54808 7.98808 0.852692
2 10.2906 4.7881 3.15006
2 9.68178 3.3717 11.0499
2 5.04174 7.02608 10.4815
2 7.70733 3.14659 11.1846
2 2.91557 9.63769 9.99804
2 8.58167 4.86374 4.61462
2 0.86267 11.3659 9.40203
2 1.80533 0.431604 4.22934
2 5.05387 5.09086 9.51405
2 6.01437 4.4824 4.20688
2 11.6523 9.27838 3.78285
2 11.8312 4.7094 10.7923
2 9.46571 7.93858 9.78177
2 7.33346 5.65551 9.74733
2 10.7875 2.98945 5.34634
2 7.67334 7.48247 10.9915
2 0.729771 9.04392 1.53823
2 4.51957 11.7139 12.0269
2 8.68149 4.83669 6.19746
2 4.2489 3.33472 1.26373
2 1.35491 8.3565 5.67551
2 5.68535 5.86534 12.0806
2 11.6712 11.1728 12.1128
2 10.1784 7.21024 2.62803
2 11.8756 2.70538 12.3899
2 6.99639 10.1971 2.79967
2 9.59775 0.599776 11.3288
2 3.70595 7.38145 7.88552
2 0.820977 11.6769 1.22362
2 2.10324 9.60874 7.98489
2 8.91199 11.8334 3.42461
2 1.25042 2.4013 9.35042
2 5.08206 8.95642 11.0799
2 2.952 3.45923 11.4277
2 9.10179 2.03139 7.49794
2 2.25352 4.95685 8.25417
2 9.50106 10.8209 1.29244
2 10.3497 4.96547 0.631883
2 1.9191 9.52521 11.9528
2 8.48524 2.92238 3.66553
2 9.81176 1.09254 5.68138
2 9.67992 9.27248 2.54357
2 11.4633 0.526741 10.5962
2 1.33532 6.27959 7.01607
2 2.04428 1.89238 0.98297
2 1.41464 11.5908 5.47646
1 1.28969 9.87873 9.3641
1 2.62092 11.8638 2.69721
1 4.03571 6.48598 9.16606
1 7.43701 4.62196 3.53349
1 3.11933 8.52667 7.18302
1 5.58007 9.71639 1.92906
1 10.4172 9.27977 10.4965
1 6.49999 4.63853 10.5907
1 11.2266 3.40183 3.65033
1 8.83713 2.01855 10.5158
1 0.847607 6.1888 10.505
1 4.92587 0.449022 1.0403
1 9.91623 5.20686 7.3613
1 5.80988 3.40222 1.19499
1 12.2828 7.27798 6.31831
1 5.91237 7.70783 11.8621
1 11.4872 8.40976 2.59356
1 3.72533 10.2091 11.3401
1 10.6614 2.05622 6.7883
1 8.17721 6.9154 9.26411
1 1.42278 9.79339 4.74998
1 0.421741 0.864518 9.29503
1 9.12158 1.43633 4.26073
1 3.16009 2.80558 0.386977
1 11.0659 3.89656 11.9185
1 2.33718 4.93406 6.67545
1 10.1088 10.9901 12.0417
1 2.2779 3.85665 9.86656
1 0.986528 10.1754 0.39689
1 9.71975 5.83786 1.8259
1 0.410126 1.33372 0.841395
1 8.46323 10.6056 2.71919
96
 Atoms. Timestep: 16000
2 9.02551 4.15386 2.30905
2 4.80258 3.2737 11.3357
2 9.84128 3.65264 7.47236
2 10.2965 1.34351 6.70601
2 2.59856 7.21961 8.67859
2 0.849976 6.69606 5.06528
2 9.72097 6.62821 8.36706
2 2.63303 11.9175 6.34822
2 1.78588 9.63375 8.89441
2 6.25483 10.4699 8.67663
2 5.65448 2.18774 5.70402
2 7.65605 4.24462 4.78275
2 1.10458 5.48401 7.82758
2 7.50385 1.92419 10.012
2 9.64375 1.66423 10.8547
2 6.23803 5.17125 12.6057
2 1.0546 8.1563 11.2444
2 6.9688 8.77 11.5672
2 7.5702 5.46238 3.11783
2 9.75518 3.71741 10.9433
2 4.7245 7.77009 9.29352
2 7.81365 3.67521 8.85277
2 3.49356 10.8307 9.04797
2 6.63574 4.40957 7.31343
2 0.707004 10.939 7.58983
2 4.31102 10.4978 6.81839
2 5.76439 6.50075 7.98399
2 8.22509 7.00409 1.039
2 11.8268 8.14292 3.14632
2 0.703726 6.24521 12.6291
2 10.6263 6.33707 10.9497
2 7.93089 6.46309 9.29104
2 9.61859 3.50153 5.24515
2 10.0017 8.73833 10.0798
2 1.4836 9.60982 1.97411
2 4.84715 0.821768 10.8495
2 10.4417 4.69446 9.20793
2 3.21317 4.75941 12.1076
2 10.3922 5.91195 4.47305
2 6.10034 4.98013 10.5539
2 0.666218 10.948 11.1198
2 10.0404 8.85608 12.2909
2 10.7654 3.52291 1.50859
2 8.56056 10.2641 1.54582
2 10.8965 10.9291 10.9487
2 3.63767 7.01581 6.49084
2 1.26962 12.1765 1.26758
2 2.14916 8.89503 6.91474
2 8.2506 11.2042 4.35256
2 11.3547 1.26912 9.29941
2 4.60935 9.5159 10.968
2 1.0266 4.01832 10.7366
2 8.56812 11.5669 7.63455
2 11.7166 2.41517 11.6127
2 10.4797 0.756656 1.43787
2 10.3113 5.88244 1.40994
2 2.9546 11.1528 11.7684
2 6.85611 11.0981 6.65145
2 7.95059 2.14324 6.15498
2 10.4324 9.81525 3.05083
2 10.2595 9.99233 9.44606
2 3.10169 3.24216 7.2161
2 1.58658 3.39952 1.11252
2 1.58885 3.43665 8.88136
1 2.68577 10.4812 7.39945
1 5.74029 10.1618 7.29132
1 4.24266 7.18382 7.96343
1 6.33615 4.02914 5.81118
1 2.02009 7.55092 5.86723
1 8.29151 8.72982 12.5692
1 11.0475 7.30821 12.5884
1 6.81605 5.21419 8.80994
1 9.0679 4.90925 3.94814
1 9.02166 2.70282 9.68182
1 1.70961 8.25679 9.74694
1 5.52312 1.98996 10.3157
1 10.9073 5.53886 7.92817
1 4.73457 4.60559 11.6571
1 2.7751 4.55258 8.23478
1 5.62498 8.56342 10.4192
1 12.0267 9.77044 3.62118
1 4.03959 10.9396 10.5803
1 9.3761 2.49139 6.35771
1 9.35001 7.24401 9.86287
1 11.3245 6.83579 3.74027
1 10.603 11.5799 8.11571
1 7.08786 0.944875 5.46299
1 1.56624 4.97305 11.9687
1 9.57275 4.257 0.704721
1 3.68264 2.10682 6.18637
1 9.78714 11.6856 11.717
1 1.00196 2.55256 10.0502
1 1.68559 10.6127 12.5332
1 7.38675 5.8075 1.46536
1 11.765 2.00645 1.4609
1 9.26022 10.8183 2.95715
96
 Atoms. Timestep: 18000
2 9.74636 3.88919 2.67735
2 5.82353 2.17649 1.33821
2 9.7414 3.07114 7.70734
2 11.0372 10.3991 6.31774
2 1.09405 8.05916 10.3439
2 11.8732 6.83726 5.93257
2 9.63101 5.84282 8.20944
2 3.23508 11.5314 6.17114
2 11.7322 9.64628 9.33407
2 6.33217 10.1979 10.0245
2 7.18768 1.99882 6.16802
2 8.3986 3.98865 5.60359
2 2.3174 5.48916 6.07863
2 7.83227 1.13931 11.6716
2 9.95513 1.95468 10.5731
2 5.86641 5.31842 1.6617
2 10.7244 8.50237 11.9695
2 7.93623 9.40286 11.3773
2 4.25264 7.71753 2.08379
2 8.88091 3.16451 12.5855
2 6.41991 7.59378 7.49575
2 7.18818 2.9723 9.85544
2 3.2761 10.6213 8.81942
2 6.13205 3.40848 8.09064
2 11.2287 11.4796 8.04105
2 4.52953 9.12415 6.15469
2 4.83799 5.82492 8.64973
2 6.96445 7.82118 0.882997
2 11.2932 8.55151 4.74202
2 8.96873 3.86523 10.0054
2 7.74272 8.01922 9.09513
2 6.95157 5.51573 9.10154
2 10.4512 3.29145 5.75738
2 8.75403 6.5144 6.50343
2 0.88197 11.6496 4.7799
2 4.78245 10.8621 11.8625
2 11.7728 5.13643 8.97774
2 4.47005 7.49714 9.89027
2 9.7311 5.89189 4.75997
2 5.06182 4.40476 11.1201
2 2.73717 1.42234 0.932559
2 8.91773 8.26966 1.67137
2 11.6476 4.09793 12.7056
2 8.02652 10.7772 1.95528
2 11.5365 11.1588 11.08
2 3.89495 6.96817 6.78395
2 3.06192 3.19927 11.932
2 2.26503 9.03143 6.5051
2 7.70961 11.8732 4.88444
2 1.30202 1.36691 8.94069
2 2.2558 9.56812 10.9433
2 1.88904 7.15727 7.99744
2 9.52138 9.51975 9.19714
2 2.27053 3.57447 9.85218
2 1.18271 2.38514 11.3464
2 10.2654 5.71734 1.57681
2 3.61567 11.9967 10.5386
2 6.55732 10.428 6.87162
2 9.31551 0.676148 7.02278
2 9.72952 10.7085 4.45586
2 9.96475 8.31657 6.99493
2 0.952935 2.10257 6.33164
2 0.886141 5.62488 10.9235
2 2.63925 2.88977 7.11217
1 3.53404 10.058 6.9093
1 6.30753 8.9228 6.17719
1 4.54131 7.27838 8.32887
1 7.12408 3.46969 6.47544
1 2.11097 7.22281 6.4386
1 8.01973 9.46508 1.07651
1 10.487 7.29107 1.36867
1 5.80066 4.49956 9.41084
1 9.98562 4.29844 4.62512
1 8.54121 2.32157 11.1153
1 11.9251 9.60217 11.0684
1 6.14382 0.882966 12.3252
1 10.2018 4.44825 8.71212
1 5.38599 3.83986 0.874779
1 2.06533 3.75557 5.95239
1 7.81431 9.62137 9.37798
1 11.225 10.1616 4.7878
1 3.66855 10.2647 10.6719
1 10.4734 1.86783 6.74213
1 7.97283 6.66437 8.21913
1 10.5108 7.35383 5.61453
1 10.4659 9.95095 8.05319
1 7.65631 0.430126 6.52392
1 0.97542 6.5872 9.30343
1 10.0304 4.26877 1.08054
1 1.82585 0.943161 5.80915
1 11.5429 1.28192 10.4676
1 2.46962 2.42197 8.87684
1 3.97212 1.75355 11.4662
1 5.67673 6.88458 1.34102
1 1.54961 3.95989 11.4198
1 8.34818 10.5741 3.89146
96
 Atoms. Timestep: 20000
2 11.9327 6.23767 3.87033
2 5.81678 11.9689 1.61038
2 10.3794 3.63814 7.31232
2 2.16292 1.45408 8.36988
2 1.17471 7.53311 11.7219
2 10.4878 8.98747 10.7532
2 10.1077 7.30121 8.30842
2 2.63843 10.4249 4.15288
2 11.4574 11.7223 9.0957
2 7.2384 9.8097 7.57611
2 6.23521 1.52585 3.505
2 8.82444 5.4255 4.43865
2 2.71954 5.24245 6.97002
2 6.6866 10.6742 10.8548
2 8.23311 2.59951 9.9088
2 5.9603 3.86673 1.85401
2 8.90783 8.7326 2.27239
2 5.12689 8.86268 1.33414
2 6.53907 6.15962 3.98837
2 8.3209 4.51742 11.0259
2 7.62922 6.7806 9.17516
2 6.78045 3.86113 8.52959
2 2.09571 10.8164 6.84676
2 6.91543 4.71991 6.53097
2 11.1078 1.26926 6.81013
2 4.55981 9.94604 6.36891
2 4.85734 2.14525 7.95982
2 4.75955 6.43008 1.75654
2 10.817 8.3506 1.32847
2 8.9576 5.16379 8.40407
2 8.52878 9.39232 9.04355
2 8.87032 7.91602 11.3293
2 10.2592 3.74686 4.81699
2 11.0284 8.11344 5.63751
2 1.83704 8.94644 2.98864
2 2.80005 11.3264 9.94931
2 0.898368 4.78833 8.11493
2 3.14118 9.92443 0.9716
2 10.1994 6.01502 6.39879
2 4.94516 1.77376 10.7094
2 3.85884 2.05998 2.14541
2 5.75976 6.93617 11.1281
2 11.3299 4.33499 0.793789
2 8.49943 8.51731 5.31022
2 8.11956 11.6464 11.4905
2 4.42382 7.11181 8.31745
2 1.84728 2.78706 1.36939
2 2.88556 8.17373 6.01537
2 8.87482 10.5538 3.60519
2 10.2785 2.02681 11.3469
2 1.30869 10.1254 11.3903
2 1.77985 6.7313 8.8751
2 10.252 11.713 9.78043
2 2.71936 2.37996 10.7661
2 11.324 2.85521 10.8522
2 8.86411 6.20528 1.02831
2 4.67802 10.8667 11.6245
2 7.25387 11.132 4.94526
2 8.90142 1.73337 5.3175
2 11.05 8.36384 4.25796
2 11.7038 10.0437 8.15038
2 3.54715 3.49349 6.26239
2 2.10916 4.70341 11.054
2 3.06256 3.35771 8.89456
1 2.82689 9.65434 6.084
1 6.17459 10.0477 6.10144
1 6.11092 7.52169 9.43902
1 7.3411 5.37646 5.21996
1 3.16521 6.96912 7.32051
1 4.92328 7.55322 12.5307
1 9.169 7.77214 0.814579
1 6.09889 3.19411 7.3328
1 10.431 5.4826 4.80027
1 8.12606 4.19062 9.36225
1 11.6202 8.8586 11.7253
1 5.68598 10.4321 0.760695
1 10.4888 5.42275 7.81199
1 5.38284 2.08669 2.26232
1 2.273 3.84147 7.48901
1 6.83658 9.78459 9.21612
1 0.758647 7.46063 2.83731
1 2.91806 11.0854 11.639
1 10.407 2.36862 5.77003
1 9.11909 7.93391 9.47978
1 11.0368 8.45009 7.18137
1 0.9175 11.7093 7.63073
1 8.21886 0.659808 4.22643
1 1.81197 6.44073 10.5433
1 9.49049 4.86219 12.2658
1 2.76637 10.1485 2.4227
1 9.26754 1.19873 10.617
1 3.67443 1.8084 9.27775
1 2.46778 1.27213 1.7714
1 5.79852 5.41314 2.64575
1 1.3419 3.45208 11.6561
1 9.40272 8.69439 3.85232
96
 Atoms. Timestep: 22000
2 0.875724 5.74925 3.29121
2 6.28541 11.0266 11.9506
2 11.5613 2.30763 6.0363
2 2.4533 1.66412 8.33454
2 0.952938 7.90816 10.7891
2 9.55365 8.49388 11.491
2 10.2847 8.85028 8.66262
2 3.5221 9.27959 4.93082
2 1.83734 11.3154 9.51571
2 6.65193 11.5333 8.629
2 7.58149 11.2292 2.82522
2 8.96398 5.82147 5.06585
2 2.76421 7.05598 7.1331
2 5.54893 9.80112 12.0204
2 7.89075 3.71165 10.1879
2 6.18716 2.64012 1.75317
2 8.06836 7.93167 1.60533
2 4.31443 7.51418 12.6155
2 6.33192 4.47881 3.53885
2 9.53488 5.14616 8.78983
2 7.53988 5.43102 9.05907
2 6.38672 3.90006 8.4852
2 3.51373 10.9837 7.30938
2 5.93402 4.84422 5.84241
2 1.39664 11.1704 5.95564
2 5.7811 10.1261 6.32713
2 4.16252 3.76412 8.45936
2 4.76465 4.64436 1.34792
2 0.789206 7.4961 1.21005
2 9.33628 3.22124 7.66793
2 7.83767 9.93956 9.86571
2 7.29202 7.22583 10.8735
2 1.90001 1.41968 4.1519
2 10.7697 8.11061 6.11898
2 1.1929 8.39629 3.73745
2 1.72687 1.43971 1.77702
2 1.07915 3.70107 7.34173
2 2.0775 10.4403 2.68771
2 9.99768 5.19964 6.88479
2 1.98629 5.35115 9.26095
2 3.63766 3.47226 3.33811
2 5.50618 5.86321 10.7563
2 11.81 4.24746 11.153
2 7.36273 6.74197 4.05716
2 8.49469 1.33609 10.6319
2 5.55836 7.0181 8.32506
2 2.17515 3.36584 1.35693
2 4.58115 8.78624 7.37039
2 8.94489 9.09711 3.75382
2 8.33903 1.8765 1.24422
2 11.5138 10.1944 12.215
2 3.10183 7.55239 9.5399
2 9.71751 4.35115 11.2186
2 2.27947 2.99868 10.0918
2 1.8194 4.48958 3.76895
2 9.41708 6.39038 11.346
2 2.67805 9.75868 11.9979
2 7.91877 11.1416 5.72872
2 10.3576 10.9926 4.66012
2 9.83537 6.82799 3.00355
2 0.797955 10.2553 7.96585
2 11.5243 5.86672 5.70592
2 2.90343 5.3511 11.0424
2 4.238 5.65096 7.37661
1 4.19412 9.86157 6.27807
1 6.78107 11.0354 6.90321
1 6.33402 6.42229 9.6473
1 7.43888 5.27097 4.4259
1 4.03967 7.44334 8.13222
1 4.39593 5.95354 12.0336
1 8.43366 7.32482 11.9555
1 5.31817 4.16815 7.39968
1 9.87633 6.68344 6.06657
1 8.19756 3.96104 8.63884
1 11.1605 8.65769 12.0355
1 4.15806 9.20345 12.4987
1 10.5409 3.55631 6.75794
1 6.65055 0.971542 1.65263
1 1.8518 6.32679 5.66551
1 7.13405 11.546 10.3317
1 11.407 6.96058 2.69287
1 1.73248 10.7501 1.00319
1 11.6738 0.889498 4.86762
1 9.26765 9.20857 10.0049
1 11.3613 8.76897 7.50923
1 1.92707 11.309 7.52164
1 8.52938 10.8451 4.18864
1 2.11223 6.56613 10.314
1 10.4157 5.49078 10.2513
1 2.50674 9.27279 3.65748
1 8.57965 2.98424 11.404
1 2.6166 3.70679 8.50861
1 2.10418 2.76977 2.90866
1 5.22541 3.70041 2.62628
1 2.29936 4.00774 11.4115
1 8.4975 7.75916 3.1393
96
 Atoms. Timestep: 24000
2 11.3735 4.94607 4.31606