LAMMPS (2 Aug 2023 - Update 3)
units metal
boundary p p p
atom_style full
pair_style tersoff
neighbor 2.0 bin
neigh_modify delay 1




read_data SiO.data
Reading data file ...
  orthogonal box = (0 0 0) to (12.589463 12.589463 13.222096)
  1 by 1 by 1 MPI processor grid
WARNING: Atom style in data file atom-ID molecule-ID atom-type q x y z differs from currently defined atom style full (../read_data.cpp:621)
  reading atoms ...
  96 atoms
Finding 1-2 1-3 1-4 neighbors ...
  special bond factors lj:    0        0        0       
  special bond factors coul:  0        0        0       
     0 = max # of 1-2 neighbors
     0 = max # of 1-3 neighbors
     0 = max # of 1-4 neighbors
     1 = max # of special neighbors
  special bonds CPU = 0.000 seconds
  read_data CPU = 0.003 seconds
replicate 1 1 1
Replication is creating a 1x1x1 = 1 times larger system...
  orthogonal box = (0 0 0) to (12.589463 12.589463 13.222096)
  1 by 1 by 1 MPI processor grid
  96 atoms
Finding 1-2 1-3 1-4 neighbors ...
  special bond factors lj:    0        0        0       
  special bond factors coul:  0        0        0       
     0 = max # of 1-2 neighbors
     0 = max # of 1-3 neighbors
     0 = max # of 1-4 neighbors
     1 = max # of special neighbors
  special bonds CPU = 0.000 seconds
  replicate CPU = 0.001 seconds

pair_coeff * *  /root/Desktop/host/job1/SiO.tersoff Si O
Reading tersoff potential file /root/Desktop/host/job1/SiO.tersoff with DATE: 2010-08-16



group Si type 1
32 atoms in group Si
group O type 2
64 atoms in group O
#create_bonds many SiO SiO 1 0.5 10

dump dmp all xyz 2000 dump.lammpstrj



variable apot equal pe
# first number: number of steps to get current temp
# second number: calculate average n number of temp read above.
# third number: temp record (this must be larger than the one above )

variable atemp equal temp
fix temp_info all ave/time 10 200 2000 v_atemp file temperature.dat

#The cutoff used for pairwise computation (any pair style) and the
#associated neighbor list is the maximum cutoff that any compute
#can use. Atoms don't know any info about their neighbors
#further away than that.

# compute coord number
compute coor12 Si coord/atom cutoff 2.5 group O
compute coor11 Si coord/atom cutoff 2.5 group Si
compute coor22 O coord/atom cutoff 2.0 group O

compute sumcoor12 all reduce ave c_coor12
compute sumcoor11 all reduce ave c_coor11
compute sumcoor22 all reduce ave c_coor22


fix 12coord all ave/time  10 200 2000 c_sumcoor12 file Si-O_coord_number.dat
fix 11coord all ave/time  10 200 2000  c_sumcoor11 file Si-Si_coord_number.dat
fix 22coord all ave/time  10 200 2000  c_sumcoor22 file O-O_coord_number.dat




# unit cell information
variable avol equal vol
variable alx equal lx
variable aly equal ly
variable alz equal lz
fix cell_info all ave/time 10 200 2000 v_avol v_alx v_aly v_alz file cell_volume.dat


fix potential_info all ave/time 10 200 2000 v_apot file potential-energy.dat
thermo 1000



velocity all create 6000 293472 mom yes rot no dist gaussian
fix npt1 all npt temp 6000 5000 0.1 iso 0 0  1
timestep 0.001
#run 500
run 80000
Neighbor list info ...
  update: every = 1 steps, delay = 1 steps, check = yes
  max neighbors/atom: 2000, page size: 100000
  master list distance cutoff = 4.8
  ghost atom cutoff = 4.8
  binsize = 2.4, bins = 6 6 6
  4 neighbor lists, perpetual/occasional/extra = 1 3 0
  (1) pair tersoff, perpetual
      attributes: full, newton on
      pair build: full/bin
      stencil: full/bin/3d
      bin: standard
  (2) compute coord/atom, occasional, copy from (1)
      attributes: full, newton on
      pair build: copy
      stencil: none
      bin: none
  (3) compute coord/atom, occasional, copy from (1)
      attributes: full, newton on
      pair build: copy
      stencil: none
      bin: none
  (4) compute coord/atom, occasional, copy from (1)
      attributes: full, newton on
      pair build: copy
      stencil: none
      bin: none
Per MPI rank memory allocation (min/avg/max) = 6.021 | 6.021 | 6.021 Mbytes
   Step          Temp          E_pair         E_mol          TotEng         Press          Volume    
         0   6000          -638.06385      0             -564.38556      73800.118      2095.6304    
      1000   6184.8636     -559.153        0             -483.20465      30573.763      2296.7089    
      2000   6010.5329     -558.48326      0             -484.67564     -4929.8851      2427.5822    
      3000   5413.1876     -536.5914       0             -470.11901     -8364.1234      2187.9493    
      4000   5338.5146     -545.84122      0             -480.28579     -10554.663      2252.1155    
      5000   5521.9318     -526.20553      0             -458.39779      46059.139      2179.4442    
      6000   5989.2824     -527.38936      0             -453.84269      58727.505      2146.8344    
      7000   4368.6053     -512.99646      0             -459.35124     -28610.916      2551.4596    
      8000   6943.6026     -524.87537      0             -439.60992      34667.008      2164.8042    
      9000   5390.2106     -516.80086      0             -450.61061      11182.614      2264.0537    
     10000   5834.3617     -502.44978      0             -430.80549      6530.0685      2349.5871    
     11000   6019.4354     -511.43506      0             -437.51812     -6183.8533      1930.1292    
     12000   6303.9544     -527.73436      0             -450.32361     -14829.383      1983.1191    
     13000   6390.6145     -516.47485      0             -437.99994     -46167.982      1878.1264    
     14000   5903.6267     -532.04757      0             -459.55273      10795.495      1790.6885    
     15000   5945.3776     -529.6644       0             -456.65686     -12519.99       1547.1077    
     16000   6046.0793     -523.39179      0             -449.14767     -17145.192      1594.6036    
     17000   6220.7312     -535.21841      0             -458.82962      13933.929      1596.7757    
     18000   4519.9019     -536.02645      0             -480.52335     -35381.155      1539.6742    
     19000   5898.8687     -538.94349      0             -466.50707      8028.0357      1490.6313    
     20000   5979.8892     -525.08405      0             -451.65272     -4616.6666      1515.2704    
     21000   6628.4042     -535.8475       0             -454.45259      267.71886      1524.9889    
     22000   5558.1204     -557.7507       0             -489.49858      13975.932      1468.6279    
     23000   5147.4466     -531.49544      0             -468.28627     -28015.766      1656.0012    
     24000   6520.866      -540.52553      0             -460.45116     -29531.275      1612.1571    
     25000   5458.6489     -527.17656      0             -460.14591      4760.0739      1637.2176    
     26000   6269.6492     -522.16514      0             -445.17564     -35459.704      1614.2333    
     27000   5583.7629     -545.41031      0             -476.8433      -20752.152      1397.4764    
     28000   5305.7945     -538.5579       0             -473.40426      72729.577      1340.4829    
     29000   6564.5824     -533.07708      0             -452.46588     -2353.5971      1455.2018    
     30000   5668.4074     -542.24029      0             -472.63387     -15188.256      1466.427     
     31000   6051.3972     -537.81674      0             -463.50732     -4341.3075      1302.2119    
     32000   5608.697      -542.78846      0             -473.91527     -14818.718      1271.8338    
     33000   4922.0036     -558.68304      0             -498.24225      1191.3749      1283.4048    
     34000   6625.5951     -552.65704      0             -471.29663      8408.0901      1400.9403    
     35000   4747.7128     -545.15669      0             -486.85613      30254.692      1351.2553    
     36000   6272.8904     -544.65362      0             -467.62432      1473.8345      1490.4778    
     37000   5954.2357     -536.60786      0             -463.49155     -29335.153      1528.2107    
     38000   5823.0015     -545.29564      0             -473.79085      53595.973      1380.7921    
     39000   4802.4921     -544.69784      0             -485.72461     -5072.9151      1395.1867    
     40000   5682.9317     -539.14465      0             -469.35987     -503.33424      1363.0251    
     41000   5470.2067     -542.11991      0             -474.94734     -26661.253      1447.085     
     42000   5559.8197     -539.08963      0             -470.81664     -6449.6405      1329.7837    
     43000   4796.933      -558.14007      0             -499.23511     -2181.8793      1312.1596    
     44000   5940.8204     -550.70693      0             -477.75535      18408.041      1434.0303    
     45000   5547.4497     -549.69216      0             -481.57107     -58733.733      1434.7769    
     46000   5430.6914     -554.38812      0             -487.70078     -21920.902      1554.6978    
     47000   5431.4566     -553.65523      0             -486.9585       58317.707      1479.1954    
     48000   4723.9044     -546.08646      0             -488.07827      46013.794      1688.3823    
     49000   5692.6785     -549.95945      0             -480.05499      11819.423      1631.442     
     50000   5487.2451     -553.148        0             -485.7662       13699.631      1491.5479    
     51000   5223.9099     -549.93546      0             -485.78734     -14946.879      1629.8378    
     52000   4540.7548     -544.33628      0             -488.57711     -55089.574      1598.3836    
     53000   5781.2835     -538.69243      0             -467.69992      1216.9928      1526.2898    
     54000   4542.8484     -542.7475       0             -486.96262      1514.6298      1635.7021    
     55000   5668.0634     -558.48293      0             -488.88073      16288.42       1604.4778    
     56000   4871.9891     -555.32343      0             -495.4968      -8473.9451      1615.5623    
     57000   4876.8267     -551.28433      0             -491.3983      -27863.582      1642.9453    
     58000   5850.5413     -543.83205      0             -471.98908     -8221.0615      1607.5685    
     59000   5864.9373     -540.40001      0             -468.38025     -25058.415      1444.4023    
     60000   4694.984      -552.89113      0             -495.23807     -32500.328      1453.669     
     61000   4851.9381     -550.59859      0             -491.01818      40227.731      1389.365     
     62000   5795.346      -544.16427      0             -472.99908     -19502.462      1435.2121    
     63000   4346.0169     -541.23805      0             -487.87021     -40939.019      1499.4405    
     64000   5575.0072     -545.5193       0             -477.05981      26970.632      1518.0518    
     65000   4255.7083     -545.66001      0             -493.40113     -71853.573      1511.077     
     66000   6244.3639     -553.764        0             -477.085        7964.5611      1455.4483    
     67000   5154.6636     -561.61977      0             -498.32198      35554.436      1463.7294    
     68000   5838.813      -558.64756      0             -486.9486      -31763.651      1574.494     
     69000   5169.7601     -556.17837      0             -492.6952      -9147.3872      1531.5179    
     70000   4703.1534     -557.40385      0             -499.65047      59016.805      1534.8128    
     71000   4539.481      -551.0582       0             -495.31468      2260.5209      1626.258     
     72000   4754.249      -559.18145      0             -500.80063     -34292.037      1647.645     
     73000   4836.5687     -551.45796      0             -492.06628      30994.437      1538.9623    
     74000   4792.2901     -567.01712      0             -508.16917      13644.815      1420.6866    
     75000   5119.7826     -552.2393       0             -489.36984     -17666.207      1546.8392    
     76000   5529.1468     -556.11696      0             -488.22062      6775.2768      1546.8285    
     77000   5246.4502     -557.36301      0             -492.9381      -3963.3433      1598.8344    
     78000   5190.6446     -566.50718      0             -502.76755      1181.2322      1428.39      
     79000   5435.302      -559.51013      0             -492.76617      56541.922      1520.7295    
     80000   5240.8016     -557.12823      0             -492.77268      37361.289      1362.9884    
Loop time of 7.10002 on 1 procs for 80000 steps with 96 atoms

Performance: 973.518 ns/day, 0.025 hours/ns, 11267.567 timesteps/s, 1.082 Matom-step/s
98.7% CPU use with 1 MPI tasks x no OpenMP threads

MPI task timing breakdown:
Section |  min time  |  avg time  |  max time  |%varavg| %total
---------------------------------------------------------------
Pair    | 5.9192     | 5.9192     | 5.9192     |   0.0 | 83.37
Bond    | 0.0029717  | 0.0029717  | 0.0029717  |   0.0 |  0.04
Neigh   | 0.4679     | 0.4679     | 0.4679     |   0.0 |  6.59
Comm    | 0.21333    | 0.21333    | 0.21333    |   0.0 |  3.00
Output  | 0.0093773  | 0.0093773  | 0.0093773  |   0.0 |  0.13
Modify  | 0.44837    | 0.44837    | 0.44837    |   0.0 |  6.32
Other   |            | 0.03886    |            |       |  0.55

Nlocal:             96 ave          96 max          96 min
Histogram: 1 0 0 0 0 0 0 0 0 0
Nghost:            514 ave         514 max         514 min
Histogram: 1 0 0 0 0 0 0 0 0 0
Neighs:              0 ave           0 max           0 min
Histogram: 1 0 0 0 0 0 0 0 0 0
FullNghs:         3118 ave        3118 max        3118 min
Histogram: 1 0 0 0 0 0 0 0 0 0

Total # of neighbors = 3118
Ave neighs/atom = 32.479167
Ave special neighs/atom = 0
Neighbor list builds = 3766
Dangerous builds = 0

fix npt1 all npt temp 5000 4000 0.1 iso 0 0 1
run 80000
Per MPI rank memory allocation (min/avg/max) = 8.549 | 8.549 | 8.549 Mbytes
   Step          Temp          E_pair         E_mol          TotEng         Press          Volume    
     80000   5240.8016     -557.12823      0             -492.77268      37361.289      1362.9884    
     81000   5642.9659     -551.41433      0             -482.12033      80291.73       1356.5105    
     82000   4278.5298     -554.35686      0             -501.81774     -5133.6725      1361.1612    
     83000   5268.7618     -548.52547      0             -483.82658     -3204.2356      1417.1254    
     84000   5737.8042     -548.82419      0             -478.3656      -37794.223      1435.0942    
     85000   5042.4245     -548.39909      0             -486.47956      3898.5305      1427.3328    
     86000   4885.0518     -554.18177      0             -494.19473     -42753.193      1444.9193    
     87000   4739.0435     -560.06315      0             -501.86906      30882.184      1430.5106    
     88000   5278.4153     -565.50635      0             -500.68892      68594.242      1358.8755    
     89000   4994.6747     -556.45555      0             -495.12238      69121.884      1373.263     
     90000   5657.8114     -548.57532      0             -479.09902     -6057.4243      1474.8329    
     91000   4667.6625     -560.7235       0             -503.40594      23061.271      1401.9386    
     92000   4889.0255     -554.00476      0             -493.96892     -16326.237      1359.8272    
     93000   5954.1392     -559.51844      0             -486.40331      15162.483      1344.7691    
     94000   4623.6312     -558.73681      0             -501.95994      28365.742      1195.7374    
     95000   4485.0839     -553.47248      0             -498.39694      97562.215      1376.0891    
     96000   4838.2076     -569.13001      0             -509.7182      -604.00312      1370.1677    
     97000   4158.4528     -562.50152      0             -511.43691     -20345.167      1461.3857    
     98000   4710.9688     -558.11857      0             -500.26922     -20546.222      1472.5092    
     99000   5253.4899     -553.2113       0             -488.69995     -88142.586      1535.4879    
    100000   4493.3493     -560.37854      0             -505.2015      -15480.87       1439.6199    
    101000   4757.4218     -550.39093      0             -491.97115     -39729.113      1421.1131    
    102000   4416.4125     -557.68439      0             -503.45211      52414.773      1426.5597    
    103000   4250.8565     -568.13509      0             -515.93579      7141.4896      1437.8075    
    104000   4834.3764     -563.16059      0             -503.79584     -22129.677      1455.9435    
    105000   4995.1008     -570.98906      0             -509.65065      22401.86       1449.6425    
    106000   5116.5275     -563.26396      0             -500.43447      6270.0247      1470.6802    
    107000   4963.7726     -572.74619      0             -511.79248     -11589.632      1489.9549    
    108000   5409.4929     -564.3207       0             -497.89368      33999.085      1444.6912    
    109000   4652.2761     -562.2673       0             -505.13868      2493.9075      1508.6224    
    110000   5049.1941     -565.50499      0             -503.50233      44435.116      1479.4613    
    111000   4783.9308     -551.27194      0             -492.52664      7313.223       1379.8267    
    112000   5224.4218     -557.37061      0             -493.21621     -17098.892      1398.0574    
    113000   4819.4728     -562.13986      0             -502.95812      4812.5375      1392.6411    
    114000   4156.4392     -567.35651      0             -516.31662     -14969.25       1403.767     
    115000   4615.7094     -559.53515      0             -502.85556     -34129.166      1425.2386    
    116000   4101.3772     -567.59759      0             -517.23385     -19275.215      1376.6524    
    117000   4828.4276     -556.80052      0             -497.50881      11416.706      1395.4248    
    118000   4438.187      -567.70634      0             -513.20667      34995.948      1394.2207    
    119000   4592.5634     -559.58819      0             -503.19282      5615.3014      1395.9116    
    120000   4477.8537     -554.88605      0             -499.89929     -25845.086      1417.8922    
    121000   4692.6051     -566.44322      0             -508.81937     -27259.016      1421.1365    
    122000   4426.9059     -563.9054       0             -509.54426      102915.6       1368.3767    
    123000   4965.1167     -572.44563      0             -511.47542      6559.7351      1343.0835    
    124000   3879.0801     -576.69038      0             -529.05639      21794.99       1329.0709    
    125000   4501.5439     -564.76245      0             -509.48478      32268.694      1346.9388    
    126000   3970.5272     -563.88595      0             -515.12901     -11093.657      1415.1899    
    127000   4270.9368     -568.38088      0             -515.935       -622.08895      1424.4945    
    128000   4754.5288     -561.86018      0             -503.47593      15494.212      1424.5738    
    129000   4621.8155     -563.15784      0             -506.40326     -57921.488      1415.6262    
    130000   4343.6737     -562.09145      0             -508.75238      37946.308      1426.0315    
    131000   3854.7467     -563.33893      0             -516.00375     -4594.8184      1449.7353    
    132000   4234.6629     -571.20415      0             -519.20371      34900.118      1534.0394    
    133000   4330.899      -565.17898      0             -511.99678      22003.512      1459.5828    
    134000   4065.9973     -566.29921      0             -516.36993     -15357.283      1603.9233    
    135000   4909.3501     -574.80476      0             -514.51935      1537.1867      1556.3734    
    136000   4326.3974     -567.54744      0             -514.42052      2872.9236      1532.6202    
    137000   3939.3068     -565.80052      0             -517.42696      48949.877      1534.9527    
    138000   3721.8539     -570.60737      0             -524.90406     -12580.195      1446.3624    
    139000   4483.0859     -568.71813      0             -513.66712     -36248.688      1549.8599    
    140000   3837.4797     -563.41811      0             -516.29496      18890.213      1537.7117    
    141000   4218.0321     -572.48655      0             -520.69033     -17939.398      1674.7144    
    142000   4212.1332     -570.2381       0             -518.51431      9175.7288      1600.2682    
    143000   4325.1979     -572.03219      0             -518.92         8684.8687      1552.5706    
    144000   4048.9841     -570.29329      0             -520.57292     -33007.841      1597.7716    
    145000   4272.5921     -561.89711      0             -509.43091      744.5925       1532.3155    
    146000   3930.4934     -573.27969      0             -525.01436     -7920.1099      1553.3958    
    147000   4410.8202     -561.94731      0             -507.78371     -4577.2381      1555.3324    
    148000   3941.47       -573.50484      0             -525.10471     -25904.229      1563.0764    
    149000   3785.083      -565.27944      0             -518.79971     -4396.8942      1567.5503    
    150000   4298.6377     -574.97144      0             -522.1854      -23263.353      1633.4302    
    151000   4333.8838     -568.57973      0             -515.36088      16962.465      1535.9028    
    152000   3934.9205     -567.86027      0             -519.54058      46256.197      1553.6746    
    153000   3947.5591     -570.76837      0             -522.29348     -5982.9694      1576.1755    
    154000   4633.2649     -570.17106      0             -513.27589      21479.861      1606.3929    
    155000   4152.6392     -568.98169      0             -517.98847     -4645.75        1658.4486    
    156000   4091.0164     -572.21172      0             -521.97521     -9742.3612      1669.6034    
    157000   3903.7255     -566.43754      0             -518.50091     -47083.317      1708.9037    
    158000   3392.8938     -577.26622      0             -535.60246     -48836.374      1660.7109    
    159000   4519.2414     -581.67716      0             -526.18217     -12512.383      1584.1563    
    160000   4290.041      -579.41271      0             -526.73223     -4133.9794      1545.4685    
Loop time of 6.83737 on 1 procs for 80000 steps with 96 atoms

Performance: 1010.915 ns/day, 0.024 hours/ns, 11700.409 timesteps/s, 1.123 Matom-step/s
99.1% CPU use with 1 MPI tasks x no OpenMP threads

MPI task timing breakdown:
Section |  min time  |  avg time  |  max time  |%varavg| %total
---------------------------------------------------------------
Pair    | 5.7157     | 5.7157     | 5.7157     |   0.0 | 83.60
Bond    | 0.0028806  | 0.0028806  | 0.0028806  |   0.0 |  0.04
Neigh   | 0.41856    | 0.41856    | 0.41856    |   0.0 |  6.12
Comm    | 0.20809    | 0.20809    | 0.20809    |   0.0 |  3.04
Output  | 0.010369   | 0.010369   | 0.010369   |   0.0 |  0.15
Modify  | 0.44646    | 0.44646    | 0.44646    |   0.0 |  6.53
Other   |            | 0.03532    |            |       |  0.52

Nlocal:             96 ave          96 max          96 min
Histogram: 1 0 0 0 0 0 0 0 0 0
Nghost:            496 ave         496 max         496 min
Histogram: 1 0 0 0 0 0 0 0 0 0
Neighs:              0 ave           0 max           0 min
Histogram: 1 0 0 0 0 0 0 0 0 0
FullNghs:         2716 ave        2716 max        2716 min
Histogram: 1 0 0 0 0 0 0 0 0 0

Total # of neighbors = 2716
Ave neighs/atom = 28.291667
Ave special neighs/atom = 0
Neighbor list builds = 3310
Dangerous builds = 0

fix npt1 all npt temp 4000 4000 0.1 iso 0 0 1
run 80000
Per MPI rank memory allocation (min/avg/max) = 8.549 | 8.549 | 8.549 Mbytes
   Step          Temp          E_pair         E_mol          TotEng         Press          Volume    
    160000   4290.041      -579.41271      0             -526.73223     -4133.9794      1545.4685    
    161000   3874.7731     -584.36258      0             -536.78148      29681.813      1527.0098    
    162000   3839.8409     -578.09016      0             -530.93801      13862.318      1513.8014    
    163000   4674.1765     -574.27559      0             -516.87804      96535.695      1476.7396    
    164000   3726.3264     -577.01579      0             -531.25757     -13585.695      1551.7004    
    165000   3490.6313     -581.48608      0             -538.62213     -41318.449      1587.6566    
    166000   3724.9541     -568.47704      0             -522.73567     -40907.935      1567.6338    
    167000   3776.2347     -582.07183      0             -535.70075     -8263.4042      1524.7921    
    168000   4162.5257     -570.40816      0             -519.29354     -15798.895      1565.9705    
    169000   4072.5072     -577.16428      0             -527.15505     -16842.162      1453.899     
    170000   4032.3447     -574.60864      0             -525.0926       20793.408      1508.783     
    171000   3795.6867     -575.6718       0             -529.06186     -34838.565      1506.6823    
    172000   3782.8209     -573.69342      0             -527.24147      7212.9977      1441.7976    
    173000   4112.4799     -571.40799      0             -520.90791     -11513.372      1476.9334    
    174000   3852.0671     -575.26307      0             -527.96079     -27208.703      1551.9987    
    175000   4020.8037     -577.68495      0             -528.31063     -26140.548      1545.0514    
    176000   3924.2153     -574.6673       0             -526.47906     -68006.872      1537.2712    
    177000   4995.0848     -572.92286      0             -511.58465     -27217.502      1567.7704    
    178000   4752.7283     -574.62546      0             -516.26332      38762.223      1511.2323    
    179000   4008.9009     -578.7255       0             -529.49734      47492.345      1477.4261    
    180000   4212.5241     -578.53672      0             -526.80813     -6909.0338      1665.2185    
    181000   3926.2666     -571.8149       0             -523.60147     -30230.535      1660.6007    
    182000   3520.2523     -577.47218      0             -534.24449      23668.868      1604.4398    
    183000   4295.1223     -571.68331      0             -518.94044     -6540.8819      1545.9819    
    184000   3869.3987     -572.83336      0             -525.31825      77032.647      1513.729     
    185000   3826.1357     -570.34513      0             -523.36128     -48727.935      1489.7952    
    186000   3523.9258     -570.3692       0             -527.0964      -21814.079      1542.8718    
    187000   4239.6566     -569.58815      0             -517.52638     -36674.396      1607.7212    
    188000   3919.0286     -580.58735      0             -532.4628       18855.709      1581.104     
    189000   4196.2938     -566.61093      0             -515.08164      68005.301      1530.0779    
    190000   3514.7322     -576.71185      0             -533.55194      13027.738      1507.2829    
    191000   4319.5682     -572.80616      0             -519.7631       9593.4858      1573.1155    
    192000   4351.2847     -572.43345      0             -519.00092      8117.8929      1578.5059    
    193000   4493.779      -571.96378      0             -516.78146      42251.06       1573.6672    
    194000   4181.2158     -577.27057      0             -525.92644      19342.614      1492.7155    
    195000   3775.0549     -580.00474      0             -533.64814     -41037.606      1532.8728    
    196000   4107.6706     -575.9463       0             -525.50528     -28306.726      1567.5244    
    197000   3518.6421     -578.19937      0             -534.99145      17400.175      1586.0287    
    198000   4534.2465     -581.30849      0             -525.62924      57383.585      1573.221     
    199000   4661.1351     -572.03321      0             -514.7958      -27649.889      1623.1069    
    200000   4281.4668     -582.49118      0             -529.91599      12630.147      1619.3076    
    201000   4706.0218     -576.04536      0             -518.25676      25483.124      1511.6778    
    202000   3930.197      -569.49675      0             -521.23506      48805.45       1472.4944    
    203000   4079.2623     -583.68523      0             -533.59306      42667.289      1534.3558    
    204000   3985.4639     -573.74503      0             -524.80468      50543.251      1535.4957    
    205000   3812.167      -580.26094      0             -533.44862      24270.357      1596.1151    
    206000   4080.0414     -570.18937      0             -520.08763     -26042.112      1696.9593    
    207000   4240.8857     -569.29107      0             -517.21421     -27293.349      1608.0302    
    208000   3670.5195     -577.5333       0             -532.46037      9052.1848      1536.3064    
    209000   4329.4435     -573.53915      0             -520.37482     -24383.903      1506.5496    
    210000   4094.5569     -575.64324      0             -525.36325      35415.191      1579.0011    
    211000   3682.2783     -575.41818      0             -530.20086      18498.522      1603.8049    
    212000   3767.1051     -573.32295      0             -527.06398     -21882.024      1584.3334    
    213000   3894.3212     -575.60494      0             -527.78379      45.182546      1559.9513    
    214000   3209.1645     -576.63266      0             -537.22504      9179.4705      1580.7616    
    215000   4001.2655     -574.68497      0             -525.55058      3778.217       1562.6315    
    216000   3751.8705     -581.34839      0             -535.27649      32187.009      1527.4804    
    217000   3772.5511     -570.33443      0             -524.00858      37356.295      1563.9523    
    218000   3588.0536     -580.6188       0             -536.55853     -15293.164      1543.2916    
    219000   4599.25       -584.23609      0             -527.75862      15003.508      1576.4149    
    220000   4231.6637     -574.83573      0             -522.87211      4016.2644      1570.8907    
    221000   4071.6264     -580.33992      0             -530.34151      4941.3088      1560.5772    
    222000   3922.2272     -578.9097       0             -530.74587     -826.30665      1514.3493    
    223000   4252.6115     -576.68967      0             -524.46882     -6887.9872      1527.5484    
    224000   4138.902      -581.56592      0             -530.74138      27978.494      1534.0774    
    225000   4344.2064     -570.32765      0             -516.98204      4427.5033      1532.6182    
    226000   3833.8034     -578.30515      0             -531.22714     -27613.246      1557.7432    
    227000   4089.0278     -579.34629      0             -529.1342       23240.959      1533.6098    
    228000   4632.1081     -582.49697      0             -525.61601      14365.058      1520.707     
    229000   3550.6848     -580.92973      0             -537.32833     -11946.566      1519.3736    
    230000   3330.8756     -568.9236       0             -528.0214      -7407.1847      1547.6898    
    231000   3827.6344     -582.30955      0             -535.30729      5595.1075      1555.5048    
    232000   4082.78       -578.48536      0             -528.34999     -1158.0816      1550.7147    
    233000   4033.4362     -566.45034      0             -516.9209      -45635.367      1586.5318    
    234000   4116.6612     -567.85927      0             -517.30785     -23427.021      1686.0913    
    235000   4092.7315     -576.46334      0             -526.20577      15985.954      1549.732     
    236000   3994.7359     -576.89299      0             -527.83877     -10237.537      1559.748     
    237000   4158.7336     -578.68085      0             -527.61279     -7391.659       1598.2152    
    238000   4039.4099     -571.46019      0             -521.8574      -27272.977      1571.2756    
    239000   4438.4139     -578.96153      0             -524.45907     -22184.26       1551.3467    
    240000   4293.3198     -568.02129      0             -515.30055      14927.328      1468.9393    
Loop time of 6.48827 on 1 procs for 80000 steps with 96 atoms

Performance: 1065.307 ns/day, 0.023 hours/ns, 12329.939 timesteps/s, 1.184 Matom-step/s
98.9% CPU use with 1 MPI tasks x no OpenMP threads

MPI task timing breakdown:
Section |  min time  |  avg time  |  max time  |%varavg| %total
---------------------------------------------------------------
Pair    | 5.4196     | 5.4196     | 5.4196     |   0.0 | 83.53
Bond    | 0.0028356  | 0.0028356  | 0.0028356  |   0.0 |  0.04
Neigh   | 0.38203    | 0.38203    | 0.38203    |   0.0 |  5.89
Comm    | 0.19528    | 0.19528    | 0.19528    |   0.0 |  3.01
Output  | 0.010217   | 0.010217   | 0.010217   |   0.0 |  0.16
Modify  | 0.44359    | 0.44359    | 0.44359    |   0.0 |  6.84
Other   |            | 0.03477    |            |       |  0.54

Nlocal:             96 ave          96 max          96 min
Histogram: 1 0 0 0 0 0 0 0 0 0
Nghost:            469 ave         469 max         469 min
Histogram: 1 0 0 0 0 0 0 0 0 0
Neighs:              0 ave           0 max           0 min
Histogram: 1 0 0 0 0 0 0 0 0 0
FullNghs:         2814 ave        2814 max        2814 min
Histogram: 1 0 0 0 0 0 0 0 0 0

Total # of neighbors = 2814
Ave neighs/atom = 29.3125
Ave special neighs/atom = 0
Neighbor list builds = 3084
Dangerous builds = 0

fix npt1 all npt temp 4000 3000 0.1 iso 0 0  1
run 80000
Per MPI rank memory allocation (min/avg/max) = 8.549 | 8.549 | 8.549 Mbytes
   Step          Temp          E_pair         E_mol          TotEng         Press          Volume    
    240000   4293.3198     -568.02129      0             -515.30055      14927.328      1468.9393    
    241000   3728.1932     -574.00589      0             -528.22475     -1160.0447      1507.2693    
    242000   4176.2246     -576.38818      0             -525.10534     -5717.5567      1579.3435    
    243000   4078.4567     -576.06922      0             -525.98694      21726.963      1563.1754    
    244000   4070.164      -574.30583      0             -524.32539      10452.891      1556.861     
    245000   3526.6138     -585.52012      0             -542.21432      13765.585      1556.875     
    246000   4032.9658     -577.11725      0             -527.59358      7792.8104      1541.9556    
    247000   4347.9732     -583.47877      0             -530.0869       31122.064      1569.8768    
    248000   3703.7651     -582.04756      0             -536.56638     -19115.256      1607.9544    
    249000   3984.9156     -573.8265       0             -524.89288     -29953.624      1586.3826    
    250000   3474.9759     -581.51871      0             -538.847        3607.1187      1575.0685    
    251000   4184.1899     -583.3056       0             -531.92494      18875.293      1633.5609    
    252000   3684.0174     -569.34373      0             -524.10506     -23089.553      1608.455     
    253000   3861.0084     -583.86273      0             -536.45066     -2286.2983      1663.0532    
    254000   4191.7235     -575.79808      0             -524.32492     -127.30108      1650.9662    
    255000   3643.2442     -581.63683      0             -536.89883     -10754.591      1614.428     
    256000   4426.104      -577.20277      0             -522.85148      18325.424      1615.0455    
    257000   4005.867      -581.93338      0             -532.74248     -3282.3989      1639.6567    
    258000   3623.8092     -577.72932      0             -533.22998     -7933.828       1574.7884    
    259000   3765.893      -581.674        0             -535.42991     -23869.228      1558.5369    
    260000   3618.408      -581.45342      0             -537.02041     -3902.7543      1540.9061    
    261000   3392.3303     -577.74714      0             -536.09029     -17141.121      1540.8635    
    262000   3767.7548     -579.093        0             -532.82605      41459.272      1516.6842    
    263000   3707.8159     -582.88509      0             -537.35417     -9442.2235      1550.1672    
    264000   3471.2998     -583.37841      0             -540.75185      4868.2174      1574.5626    
    265000   4016.5975     -576.53128      0             -527.20861      13878.301      1551.209     
    266000   3297.2824     -582.42796      0             -541.93828      50788.243      1481.7218    
    267000   3759.9954     -581.5047       0             -535.33304      1431.8228      1536.5414    
    268000   3830.6931     -583.83623      0             -536.79642      6265.7925      1565.9126    
    269000   3514.2593     -585.85924      0             -542.70514      72047.553      1527.7953    
    270000   3750.4803     -572.30473      0             -526.2499      -9755.8532      1529.6475    
    271000   3878.2761     -579.99199      0             -532.36787     -4292.2887      1501.4879    
    272000   3393.6267     -583.26644      0             -541.59368     -7884.1157      1496.7337    
    273000   3923.2313     -581.90669      0             -533.73053      24638.83       1445.613     
    274000   3990.255      -582.35754      0             -533.35835      113258.37      1480.4934    
    275000   3873.5682     -574.17868      0             -526.61237     -39074.582      1542.5506    
    276000   3213.3322     -581.67945      0             -542.22065     -16202.311      1594.3592    
    277000   3454.2811     -572.79646      0             -530.37888     -11387.669      1596.3281    
    278000   3780.1543     -581.78699      0             -535.36778     -3066.2821      1536.1458    
    279000   3190.888      -584.32505      0             -545.14186     -15031.455      1528.309     
    280000   3352.7427     -584.75192      0             -543.5812       34462.285      1522.824     
    281000   3744.1059     -580.62206      0             -534.64551     -31751.654      1516.688     
    282000   3577.2936     -584.07866      0             -540.15052     -17630.875      1499.507     
    283000   3375.29       -584.51675      0             -543.06916     -24226.891      1549.2141    
    284000   3536.9676     -581.97519      0             -538.54224     -1909.5702      1526.2985    
    285000   3582.1474     -583.40467      0             -539.41693     -10951.914      1585.6158    
    286000   3591.1312     -584.51675      0             -540.41868     -10142.599      1591.2158    
    287000   3621.9525     -584.40774      0             -539.9312       12638.172      1563.4547    
    288000   3840.7956     -580.07206      0             -532.90819     -6629.5957      1511.6545    
    289000   3371.9271     -584.83307      0             -543.42677     -3393.9934      1517.3445    
    290000   3757.925      -582.61484      0             -536.4686       547.97809      1582.8465    
    291000   3397.6062     -585.13589      0             -543.41426     -18957.996      1574.5801    
    292000   3609.4562     -580.01248      0             -535.68939     -22142.785      1605.0239    
    293000   3062.6218     -575.06734      0             -537.45922     -12187.954      1597.0781    
    294000   3199.452      -584.94579      0             -545.65744      668.08718      1537.6665    
    295000   3406.2729     -581.74271      0             -539.91465     -17482.013      1567.6177    
    296000   3503.538      -578.65728      0             -535.63483     -4695.7378      1576.6553    
    297000   3149.3891     -583.98017      0             -545.30658     -1804.0077      1593.4996    
    298000   3213.3479     -585.15172      0             -545.69273     -34051.747      1572.4087    
    299000   3327.4322     -578.66421      0             -537.80429     -37511.979      1577.7726    
    300000   3736.2665     -585.81969      0             -539.93941      51767.894      1564.9144    
    301000   2804.9824     -594.14372      0             -559.69934     -31527.865      1547.4688    
    302000   3128.4825     -582.58884      0             -544.17198      21573.15       1566.3591    
    303000   3475.0247     -594.60684      0             -551.93453     -15361.809      1622.0363    
    304000   3011.3693     -583.7345       0             -546.75575     -28536.66       1611.7108    
    305000   3157.5894     -588.92778      0             -550.15349      3806.9622      1567.7114    
    306000   3456.898      -593.0174       0             -550.56769      46548.582      1525.1788    
    307000   2844.6518     -588.74703      0             -553.81553      15088.27       1543.4917    
    308000   2983.7267     -582.37505      0             -545.73574     -1701.3868      1598.8252    
    309000   3232.1336     -588.30742      0             -548.61774      2355.0775      1607.9358    
    310000   3336.0496     -590.6244       0             -549.65867     -9345.0734      1602.0463    
    311000   2969.6824     -586.50877      0             -550.04192      23413.224      1597.0441    
    312000   3231.7083     -588.74744      0             -549.06298      1775.8993      1636.9649    
    313000   2947.0718     -584.44282      0             -548.25362     -5016.7026      1592.0863    
    314000   3101.2222     -588.41318      0             -550.33106     -11795.349      1568.342     
    315000   3218.4971     -588.31344      0             -548.79122      5177.1945      1552.687     
    316000   2529.0212     -587.14988      0             -556.09422      9718.5871      1520.4455    
    317000   2905.0434     -588.43141      0             -552.75831     -13888.909      1512.5687    
    318000   3602.9613     -587.90158      0             -543.65825     -16891.747      1561.784     
    319000   2786.5853     -594.29331      0             -560.07485     -26699.999      1597.5541    
    320000   3756.1864     -595.57347      0             -549.44858     -3978.0145      1594.7021    
Loop time of 6.25836 on 1 procs for 80000 steps with 96 atoms

Performance: 1104.443 ns/day, 0.022 hours/ns, 12782.903 timesteps/s, 1.227 Matom-step/s
99.2% CPU use with 1 MPI tasks x no OpenMP threads

MPI task timing breakdown:
Section |  min time  |  avg time  |  max time  |%varavg| %total
---------------------------------------------------------------
Pair    | 5.2544     | 5.2544     | 5.2544     |   0.0 | 83.96
Bond    | 0.0027928  | 0.0027928  | 0.0027928  |   0.0 |  0.04
Neigh   | 0.34418    | 0.34418    | 0.34418    |   0.0 |  5.50
Comm    | 0.18503    | 0.18503    | 0.18503    |   0.0 |  2.96
Output  | 0.0098168  | 0.0098168  | 0.0098168  |   0.0 |  0.16
Modify  | 0.42958    | 0.42958    | 0.42958    |   0.0 |  6.86
Other   |            | 0.03254    |            |       |  0.52

Nlocal:             96 ave          96 max          96 min
Histogram: 1 0 0 0 0 0 0 0 0 0
Nghost:            448 ave         448 max         448 min
Histogram: 1 0 0 0 0 0 0 0 0 0
Neighs:              0 ave           0 max           0 min
Histogram: 1 0 0 0 0 0 0 0 0 0
FullNghs:         2616 ave        2616 max        2616 min
Histogram: 1 0 0 0 0 0 0 0 0 0

Total # of neighbors = 2616
Ave neighs/atom = 27.25
Ave special neighs/atom = 0
Neighbor list builds = 2824
Dangerous builds = 0

fix npt1 all npt temp 3000 3000 0.1 iso 0 0 1
run 80000
Per MPI rank memory allocation (min/avg/max) = 8.549 | 8.549 | 8.549 Mbytes
   Step          Temp          E_pair         E_mol          TotEng         Press          Volume    
    320000   3756.1864     -595.57347      0             -549.44858     -3978.0145      1594.7021    
    321000   3499.4053     -589.82418      0             -546.85249     -19464.093      1548.2456    
    322000   3225.4144     -594.74068      0             -555.13352     -4396.0114      1579.9435    
    323000   3863.3694     -583.66289      0             -536.22182     -18465.527      1604.519     
    324000   3155.766      -596.61847      0             -557.86656      34035.949      1516.0987    
    325000   2866.8213     -592.14022      0             -556.93647     -5149.5349      1531.5802    
    326000   2858.6861     -586.37643      0             -551.27259      29959.757      1502.4143    
    327000   2588.0553     -591.12199      0             -559.34141     -8672.5945      1602.9927    
    328000   3026.4964     -588.45802      0             -551.29351     -8161.2314      1643.67      
    329000   2743.737      -592.40871      0             -558.71641     -1528.8907      1566.3299    
    330000   2885.545      -588.69776      0             -553.26409     -15585.683      1535.8802    
    331000   2901.491      -594.66785      0             -559.03837      26169.97       1520.4101    
    332000   2953.6638     -590.36069      0             -554.09055      4585.2289      1585.6327    
    333000   2631.1147     -590.551        0             -558.24166     -28001.537      1577.0194    
    334000   3310.3221     -585.37197      0             -544.72216      1000.6769      1544.9312    
    335000   2582.9332     -590.36242      0             -558.64474     -20167.895      1579.6528    
    336000   2999.681      -597.19871      0             -560.36349     -5911.2506      1537.5736    
    337000   2825.9035     -585.14218      0             -550.44089      4370.5919      1488.1659    
    338000   3015.0817     -594.68777      0             -557.66343     -12804.394      1565.8997    
    339000   2511.2192     -591.75651      0             -560.91946     -31975.548      1561.4598    
    340000   2728.8518     -589.45462      0             -555.9451      -9292.1638      1529.5714    
    341000   3001.9262     -594.46357      0             -557.60077      31468.918      1568.1992    
    342000   3076.4617     -590.03097      0             -552.2529      -10876.133      1566.1985    
    343000   3145.0466     -596.08208      0             -557.46181     -5326.6669      1573.4141    
    344000   3233.0131     -587.82295      0             -548.12248     -23747.506      1596.6239    
    345000   2957.5538     -592.29023      0             -555.97232      13993.429      1546.4352    
    346000   3409.9987     -591.6105       0             -549.73669      12799.733      1543.9358    
    347000   3190.0398     -591.5597       0             -552.38692     -16882.794      1610.7959    
    348000   3164.8746     -591.87649      0             -553.01273      7743.321       1539.518     
    349000   3195.1269     -590.08564      0             -550.85039      6683.5326      1538.9625    
    350000   2859.3616     -592.29164      0             -557.1795      -25196.659      1593.3846    
    351000   2864.8585     -587.9784       0             -552.79876     -4522.5983      1561.9612    
    352000   3155.387      -594.37973      0             -555.63248     -21061.326      1549.0024    
    353000   3333.4312     -592.02493      0             -551.09135     -4979.5131      1524.1621    
    354000   3439.0509     -590.29618      0             -548.06562      9002.3536      1539.9353    
    355000   2617.8049     -589.3434       0             -557.1975       13242.326      1567.4075    
    356000   3217.9224     -589.08169      0             -549.56652      1840.112       1567.5074    
    357000   3140.1554     -590.82708      0             -552.26687     -24465.013      1534.3654    
    358000   3391.2733     -586.67262      0             -545.02876      33790.332      1456.9951    
    359000   2645.0161     -586.55693      0             -554.07689     -51080.561      1549.3165    
    360000   3084.2154     -589.5958       0             -551.72252      14965.349      1513.3742    
    361000   3503.0874     -588.63638      0             -545.61947      37862.455      1497.0711    
    362000   3241.1082     -594.83782      0             -555.03794      19794.482      1517.2641    
    363000   3493.0523     -590.37123      0             -547.47755     -25723.814      1547.2025    
    364000   3303.2101     -592.92124      0             -552.35876      12430.069      1513.1964    
    365000   3005.4171     -594.62973      0             -557.72407      8786.8019      1469.9214    
    366000   3309.8767     -589.36617      0             -548.72184      3893.128       1521.0916    
    367000   2624.1229     -592.62746      0             -560.40399     -16757.592      1558.1533    
    368000   3032.2921     -593.51891      0             -556.28324     -33207.43       1559.9801    
    369000   2925.9323     -597.29624      0             -561.36663      17731.118      1501.6804    
    370000   3453.1221     -588.95202      0             -546.54867      586.8971       1545.8238    
    371000   3117.681      -593.30929      0             -555.02506     -8226.0652      1586.8696    
    372000   2998.8572     -596.04478      0             -559.21967      1622.2172      1553.0417    
    373000   3007.6231     -589.07823      0             -552.14548      30391.343      1523.2254    
    374000   3038.4612     -598.01253      0             -560.7011       38869.684      1470.3845    
    375000   3598.551      -592.62474      0             -548.43556      14206.602      1502.1209    
    376000   3120.4595     -590.83967      0             -552.52132     -27886.338      1605.2164    
    377000   2874.0731     -591.17279      0             -555.88        -11249.884      1644.1709    
    378000   3440.0243     -593.84277      0             -551.60026     -7697.9138      1569.1297    
    379000   2903.896      -595.23868      0             -559.57967      10578.921      1562.3718    
    380000   2806.2608     -586.11141      0             -551.65133     -13549.194      1539.3156    
    381000   2862.8843     -596.9974       0             -561.842        802.45217      1469.068     
    382000   2621.3583     -588.63211      0             -556.44258      2092.7337      1534.402     
    383000   3292.5859     -585.75979      0             -545.32777     -29873.827      1582.6341    
    384000   2796.2666     -595.34411      0             -561.00676     -23432.934      1570.3696    
    385000   3246.87       -594.31797      0             -554.44734      22440.958      1516.2587    
    386000   2688.9389     -590.16241      0             -557.14301     -42828.79       1588.4814    
    387000   2959.2943     -587.06599      0             -550.72671     -9235.0786      1517.6383    
    388000   3140.7633     -593.58542      0             -555.01775     -37811.673      1531.6498    
    389000   3305.7038     -590.54836      0             -549.95526      36095.786      1508.0333    
    390000   2765.6369     -589.62383      0             -555.6626       35930.123      1504.6433    
    391000   3006.4279     -590.77649      0             -553.85842     -588.51927      1518.5286    
    392000   2851.3212     -593.12686      0             -558.11345      11676.365      1513.9061    
    393000   3495.2513     -591.5899       0             -548.66921      4722.3944      1531.1813    
    394000   2880.8125     -590.42065      0             -555.0451      -6522.9015      1457.8805    
    395000   3235.1579     -589.46392      0             -549.73711      25928.582      1518.4012    
    396000   3098.3558     -589.38847      0             -551.34155     -5660.1614      1568.7907    
    397000   2708.5671     -589.70954      0             -556.44912      14522.341      1545.9968    
    398000   3476.0458     -580.41287      0             -537.72802      1015.9626      1586.5212    
    399000   2887.9013     -588.48557      0             -553.02297     -51134.028      1558.7625    
    400000   3104.9123     -589.71243      0             -551.58499      8278.24        1493.224     
Loop time of 6.17202 on 1 procs for 80000 steps with 96 atoms

Performance: 1119.894 ns/day, 0.021 hours/ns, 12961.731 timesteps/s, 1.244 Matom-step/s
99.0% CPU use with 1 MPI tasks x no OpenMP threads

MPI task timing breakdown:
Section |  min time  |  avg time  |  max time  |%varavg| %total
---------------------------------------------------------------
Pair    | 5.2028     | 5.2028     | 5.2028     |   0.0 | 84.30
Bond    | 0.0027248  | 0.0027248  | 0.0027248  |   0.0 |  0.04
Neigh   | 0.3134     | 0.3134     | 0.3134     |   0.0 |  5.08
Comm    | 0.18324    | 0.18324    | 0.18324    |   0.0 |  2.97
Output  | 0.009046   | 0.009046   | 0.009046   |   0.0 |  0.15
Modify  | 0.4291     | 0.4291     | 0.4291     |   0.0 |  6.95
Other   |            | 0.03168    |            |       |  0.51

Nlocal:             96 ave          96 max          96 min
Histogram: 1 0 0 0 0 0 0 0 0 0
Nghost:            478 ave         478 max         478 min
Histogram: 1 0 0 0 0 0 0 0 0 0
Neighs:              0 ave           0 max           0 min
Histogram: 1 0 0 0 0 0 0 0 0 0
FullNghs:         2772 ave        2772 max        2772 min
Histogram: 1 0 0 0 0 0 0 0 0 0

Total # of neighbors = 2772
Ave neighs/atom = 28.875
Ave special neighs/atom = 0
Neighbor list builds = 2557
Dangerous builds = 0

fix npt1 all npt temp 3000 2000 0.1 iso 0 0 1
run 80000
Per MPI rank memory allocation (min/avg/max) = 8.549 | 8.549 | 8.549 Mbytes
   Step          Temp          E_pair         E_mol          TotEng         Press          Volume    
    400000   3104.9123     -589.71243      0             -551.58499      8278.24        1493.224     
    401000   3130.8086     -595.68442      0             -557.23899      16049.762      1521.6089    
    402000   2833.0565     -585.36872      0             -550.5796      -6753.8999      1560.7554    
    403000   3181.3768     -583.20415      0             -544.13775     -43619.089      1600.4239    
    404000   3375.103      -587.17528      0             -545.72998     -45913.415      1598.5949    
    405000   2582.0699     -589.79194      0             -558.08486      7855.2877      1512.6861    
    406000   2908.0617     -589.78401      0             -554.07384      1340.3475      1518.8368    
    407000   3000.5463     -591.69381      0             -554.84796      24772.703      1515.397     
    408000   3452.5347     -586.5152       0             -544.11906      36476.98       1526.3697    
    409000   2580.6203     -590.7713       0             -559.08202      8214.5362      1483.392     
    410000   2946.6109     -587.67824      0             -551.4947      -2218.3364      1493.2602    
    411000   3130.0419     -592.18444      0             -553.74842     -7525.2983      1520.336     
    412000   2722.2654     -593.98003      0             -560.55139      2238.6373      1567.9949    
    413000   3082.0239     -594.32719      0             -556.48082     -6582.7527      1577.8926    
    414000   2521.5897     -597.66903      0             -566.70463      6295.1574      1581.7868    
    415000   3027.0998     -595.92547      0             -558.75355     -20503.95       1492.0632    
    416000   2511.7753     -597.6272       0             -566.78332      17121.681      1449.3276    
    417000   2919.0745     -594.09608      0             -558.25068      21018.242      1439.1295    
    418000   2558.5524     -591.90573      0             -560.48744      9290.4848      1495.4384    
    419000   2691.3555     -595.10095      0             -562.05187     -7175.4565      1549.1119    
    420000   3004.1189     -589.90673      0             -553.01701     -40420.652      1564.7842    
    421000   3003.5909     -597.4991       0             -560.61587     -17772.802      1521.719     
    422000   2665.44       -595.56485      0             -562.83401      38253.169      1512.7167    
    423000   2455.9083     -591.43083      0             -561.27298     -39050.556      1543.5386    
    424000   3089.8979     -600.41252      0             -562.46945     -12493.946      1551.1562    
    425000   2192.4415     -597.84697      0             -570.92442     -2641.5296      1581.2067    
    426000   2500.7681     -596.7056       0             -565.99689     -4423.0551      1591.763     
    427000   3221.6344     -600.42244      0             -560.86169      6301.0883      1500.9396    
    428000   2713.5837     -598.28875      0             -564.96672      8514.4309      1497.0954    
    429000   2298.0953     -596.28227      0             -568.06232     -16750.863      1578.2453    
    430000   2316.7643     -593.43723      0             -564.98803     -12263.101      1549.03      
    431000   2873.1916     -597.66939      0             -562.38741     -10460.423      1528.8725    
    432000   2450.2962     -602.03652      0             -571.94759      47307.188      1497.8178    
    433000   2518.0786     -595.5589       0             -564.63762      11858.427      1519.0316    
    434000   2341.5364     -598.16016      0             -569.40677      8583.4091      1552.5871    
    435000   2651.7841     -595.42172      0             -562.85857     -8825.8212      1535.3283    
    436000   2658.3626     -601.22674      0             -568.58281      16398.514      1523.4319    
    437000   2552.8656     -600.95448      0             -569.60602      9675.9388      1559.1444    
    438000   2817.0529     -600.99581      0             -566.4032      -5770.1837      1557.1583    
    439000   2928.1281     -596.63458      0             -560.67801     -29166.822      1614.4631    
    440000   2459.2078     -600.09596      0             -569.89759      40406.466      1530.2658    
    441000   2449.6978     -601.71466      0             -571.63308     -9593.1114      1535.056     
    442000   2493.98       -597.06105      0             -566.43569     -20496.559      1544.039     
    443000   2520.7312     -601.41645      0             -570.46259      1814.9237      1545.0044    
    444000   2817.7867     -603.4421       0             -568.84049     -8979.1838      1561.8491    
    445000   2650.8376     -597.71296      0             -565.16143     -4699.5372      1558.1285    
    446000   2067.4861     -591.76468      0             -566.37654     -3070.8812      1531.2546    
    447000   2518.7856     -603.29422      0             -572.36426      5091.5458      1517.2232    
    448000   2678.8323     -597.05379      0             -564.15849      1795.0277      1549.9032    
    449000   2280.7348     -595.42592      0             -567.41915     -26667.995      1605.0371    
    450000   2188.8042     -601.82619      0             -574.9483      -9692.7478      1562.7072    
    451000   2365.4487     -599.53441      0             -570.48737     -12435.576      1564.9023    
    452000   1916.8787     -600.32656      0             -576.78784      1422.3474      1537.1196    
    453000   2539.1602     -600.1657       0             -568.98554      46500.45       1504.8037    
    454000   2041.3746     -604.44972      0             -579.38222      5996.529       1577.011     
    455000   2786.8869     -599.57981      0             -565.35763     -6804.0538      1579.1367    
    456000   2351.4331     -605.49079      0             -576.61587      17139.938      1533.7671    
    457000   1838.4796     -600.3381       0             -577.7621       3513.9527      1495.2321    
    458000   2141.4972     -603.62414      0             -577.32717     -2973.9354      1541.3165    
    459000   2260.3706     -600.9175       0             -573.1608      -3306.4543      1572.8199    
    460000   2057.3878     -603.08204      0             -577.81791      1198.6604      1570.3656    
    461000   2428.7971     -602.22573      0             -572.4008      -8633.5654      1588.3154    
    462000   1977.0726     -601.12688      0             -576.84899     -33781.408      1513.0917    
    463000   1925.0208     -602.88856      0             -579.24986     -3749.6536      1512.5578    
    464000   2402.9222     -598.59359      0             -569.0864       38094.953      1531.6937    
    465000   1967.7226     -601.49927      0             -577.3362      -32697.406      1618.5352    
    466000   2353.6671     -600.13751      0             -571.23516     -24798.752      1583.1765    
    467000   2111.3304     -604.76948      0             -578.84295      9958.0658      1537.5553    
    468000   2320.6425     -601.50461      0             -573.00778      17935.636      1545.395     
    469000   2020.5543     -603.95884      0             -579.14701     -1865.9604      1588.3881    
    470000   2284.4642     -598.90757      0             -570.85501     -5595.2896      1540.1881    
    471000   2026.7011     -605.52879      0             -580.64148      10055.277      1516.2888    
    472000   1989.1042     -606.4699       0             -582.04427     -1009.6094      1551.8048    
    473000   2471.1275     -604.84031      0             -574.49557      2478.4486      1579.5918    
    474000   1680.0167     -603.06427      0             -582.43415     -13837.796      1566.857     
    475000   2105.7287     -603.77627      0             -577.91853      6585.4952      1498.7217    
    476000   1721.5201     -602.77594      0             -581.63617     -21665.958      1543.082     
    477000   2007.036      -599.70796      0             -575.06213     -4724.0401      1560.4137    
    478000   2039.9634     -603.42729      0             -578.37712     -487.58919      1531.0178    
    479000   1958.2397     -607.03053      0             -582.98391      2665.1061      1511.6706    
    480000   1980.9983     -602.20582      0             -577.87973     -23752.855      1538.1677    
Loop time of 6.06477 on 1 procs for 80000 steps with 96 atoms

Performance: 1139.697 ns/day, 0.021 hours/ns, 13190.934 timesteps/s, 1.266 Matom-step/s
99.1% CPU use with 1 MPI tasks x no OpenMP threads

MPI task timing breakdown:
Section |  min time  |  avg time  |  max time  |%varavg| %total
---------------------------------------------------------------
Pair    | 5.1268     | 5.1268     | 5.1268     |   0.0 | 84.53
Bond    | 0.0027829  | 0.0027829  | 0.0027829  |   0.0 |  0.05
Neigh   | 0.27536    | 0.27536    | 0.27536    |   0.0 |  4.54
Comm    | 0.18365    | 0.18365    | 0.18365    |   0.0 |  3.03
Output  | 0.010694   | 0.010694   | 0.010694   |   0.0 |  0.18
Modify  | 0.43378    | 0.43378    | 0.43378    |   0.0 |  7.15
Other   |            | 0.03174    |            |       |  0.52

Nlocal:             96 ave          96 max          96 min
Histogram: 1 0 0 0 0 0 0 0 0 0
Nghost:            470 ave         470 max         470 min
Histogram: 1 0 0 0 0 0 0 0 0 0
Neighs:              0 ave           0 max           0 min
Histogram: 1 0 0 0 0 0 0 0 0 0
FullNghs:         2778 ave        2778 max        2778 min
Histogram: 1 0 0 0 0 0 0 0 0 0

Total # of neighbors = 2778
Ave neighs/atom = 28.9375
Ave special neighs/atom = 0
Neighbor list builds = 2223
Dangerous builds = 0

fix npt1 all npt temp 2000 2000 0.1 iso 0 0 1
run 80000
Per MPI rank memory allocation (min/avg/max) = 8.549 | 8.549 | 8.549 Mbytes
   Step          Temp          E_pair         E_mol          TotEng         Press          Volume    
    480000   1980.9983     -602.20582      0             -577.87973     -23752.855      1538.1677    
    481000   1762.5842     -608.51994      0             -586.87591     -13999.719      1581.1273    
    482000   2140.4766     -605.91207      0             -579.62763      8600.4155      1497.2818    
    483000   2401.448      -604.11824      0             -574.62914     -3716.1176      1555.7211    
    484000   2030.5344     -606.76926      0             -581.83488     -1501.1569      1524.7928    
    485000   1913.4335     -598.24224      0             -574.74582     -2229.7494      1564.1194    
    486000   2000.7403     -605.37729      0             -580.80877     -18107.518      1530.9047    
    487000   2015.531      -601.1246       0             -576.37446     -14555.847      1536.4376    
    488000   1744.671      -602.39983      0             -580.97577     -7837.9972      1545.2495    
    489000   1869.5039     -606.247        0             -583.29003      1413.5442      1524.2453    
    490000   2060.938      -604.48126      0             -579.17353     -5174.2689      1570.94      
    491000   1892.9707     -607.09899      0             -583.85385      735.75299      1486.8202    
    492000   1886.1113     -602.57302      0             -579.41212     -8102.7623      1535.9994    
    493000   1942.867      -604.1087       0             -580.25085     -27490.907      1555.7076    
    494000   2207.079      -603.59577      0             -576.49347      20897.468      1514.8692    
    495000   2067.5901     -602.45489      0             -577.06547     -31873.105      1573.814     
    496000   1928.6112     -603.10245      0             -579.41966      10759.042      1502.8642    
    497000   1817.2854     -602.56469      0             -580.24894     -16736.111      1595.3835    
    498000   1794.2607     -604.14616      0             -582.11315      3238.8963      1501.7228    
    499000   1849.7684     -601.24999      0             -578.53536      13953.659      1519.926     
    500000   1609.498      -604.13504      0             -584.37087      23277.959      1572.4186    
    501000   2313.6849     -607.57806      0             -579.16667      20759.614      1510.594     
    502000   1867.9617     -607.5621       0             -584.62406     -9751.3223      1569.8517    
    503000   2512.5127     -602.0717       0             -571.21877     -6280.8977      1526.2603    
    504000   1993.7054     -606.26181      0             -581.77968      1241.2202      1519.7621    
    505000   1619.487      -607.09465      0             -587.20781      2589.2578      1545.1072    
    506000   2097.3448     -603.06196      0             -577.30716      18164.356      1520.5376    
    507000   1836.1784     -603.84657      0             -581.29883      1016.3628      1566.8051    
    508000   2413.0728     -603.86207      0             -574.23023      14559.226      1560.2865    
    509000   1919.3991     -604.81126      0             -581.24159     -6017.704       1545.4967    
    510000   2083.5523     -600.93332      0             -575.3479       27803.943      1511.809     
    511000   1851.5053     -604.10532      0             -581.36937     -2830.3413      1579.3476    
    512000   1891.4336     -604.65138      0             -581.42511      1537.086       1519.1624    
    513000   1867.5081     -597.38554      0             -574.45308      27875.428      1553.4253    
    514000   1967.1449     -604.87191      0             -580.71593     -4795.3218      1526.8094    
    515000   2055.2884     -606.91015      0             -581.6718       35317.465      1538.0588    
    516000   2032.8702     -608.78941      0             -583.82635      12005.414      1536.5978    
    517000   2124.5987     -605.38068      0             -579.29121      14653.478      1538.1485    
    518000   1889.1953     -608.20054      0             -585.00176     -6566.6092      1583.8477    
    519000   2017.3773     -605.38386      0             -580.61104     -1697.4892      1553.9002    
    520000   1936.8348     -607.4388       0             -583.65502      12042.48       1519.945     
    521000   1917.7601     -606.13518      0             -582.58563      30926.021      1502.522     
    522000   1966.5515     -605.16049      0             -581.0118       14694.582      1553.0912    
    523000   2308.0816     -608.41029      0             -580.06771      27235.64       1495.3901    
    524000   1827.1628     -605.31208      0             -582.87504     -3016.2694      1544.6107    
    525000   2242.3116     -601.64712      0             -574.11217      2687.084       1534.2406    
    526000   2024.2086     -607.78432      0             -582.92762     -27185.224      1581.6237    
    527000   1675.2983     -603.52672      0             -582.95453      10399.105      1492.1153    
    528000   2059.0836     -604.4207       0             -579.13574     -16503.927      1562.4974    
    529000   1945.0577     -607.50254      0             -583.61779     -2144.7209      1559.5032    
    530000   1878.9429     -602.99186      0             -579.91898      44166.862      1518.2952    
    531000   1922.7052     -606.3696       0             -582.75933     -17056.148      1565.8094    
    532000   2105.7068     -606.43999      0             -580.58252     -13209.875      1567.0855    
    533000   1903.747      -604.73769      0             -581.36023     -12340.79       1570.2187    
    534000   2144.7774     -608.94561      0             -582.60835     -8717.3205      1537.4394    
    535000   2018.4992     -606.44083      0             -581.65424      3987.6906      1514.3965    
    536000   1900.2029     -604.29359      0             -580.95964     -6244.3112      1604.4088    
    537000   2115.1932     -611.25437      0             -585.2804       25259.198      1510.4454    
    538000   2054.0534     -608.26407      0             -583.04088     -26309.035      1608.7759    
    539000   2070.8529     -602.75294      0             -577.32346      15317.471      1543.3772    
    540000   1962.9943     -608.96539      0             -584.86038     -13332.215      1531.1412    
    541000   1935.1209     -604.82793      0             -581.0652       11486.529      1521.405     
    542000   2209.5474     -607.63858      0             -580.50597      28018.091      1535.3853    
    543000   2048.0103     -606.0688       0             -580.91982     -11407.99       1499.9251    
    544000   1773.6981     -607.69676      0             -585.91626      1535.4499      1559.1343    
    545000   2176.9416     -606.42017      0             -579.68795     -11205.561      1543.3173    
    546000   1784.8597     -604.02562      0             -582.10805     -10182.778      1545.0439    
    547000   1714.0554     -606.4386       0             -585.39049     -5281.7248      1541.2485    
    548000   2055.7196     -605.68562      0             -580.44197     -12080.068      1576.3463    
    549000   2048.8043     -608.12963      0             -582.9709       16279.79       1499.3805    
    550000   2127.3358     -605.07852      0             -578.95544     -22152.365      1577.8565    
    551000   2187.9333     -608.07713      0             -581.20994      4676.8421      1529.8287    
    552000   1999.3686     -603.64026      0             -579.08859      4509.9652      1547.419     
    553000   1980.3837     -607.89299      0             -583.57444     -18035.247      1560.1733    
    554000   1933.5639     -602.70542      0             -578.96181      17591.884      1488.7244    
    555000   2113.6342     -605.09735      0             -579.14253     -8003.5023      1530.2882    
    556000   1978.406      -609.29953      0             -585.00527     -9342.2807      1554.24      
    557000   2047.9942     -605.89027      0             -580.74148      21450.496      1548.835     
    558000   1750.2375     -605.97852      0             -584.4861      -18331.322      1544.4195    
    559000   1682.0098     -607.46705      0             -586.81245     -22352.685      1569.8785    
    560000   2286.1259     -606.33079      0             -578.25782      13025.921      1507.3058    
Loop time of 6.08087 on 1 procs for 80000 steps with 96 atoms

Performance: 1136.679 ns/day, 0.021 hours/ns, 13156.012 timesteps/s, 1.263 Matom-step/s
99.2% CPU use with 1 MPI tasks x no OpenMP threads

MPI task timing breakdown:
Section |  min time  |  avg time  |  max time  |%varavg| %total
---------------------------------------------------------------
Pair    | 5.1698     | 5.1698     | 5.1698     |   0.0 | 85.02
Bond    | 0.003039   | 0.003039   | 0.003039   |   0.0 |  0.05
Neigh   | 0.23707    | 0.23707    | 0.23707    |   0.0 |  3.90
Comm    | 0.18342    | 0.18342    | 0.18342    |   0.0 |  3.02
Output  | 0.010597   | 0.010597   | 0.010597   |   0.0 |  0.17
Modify  | 0.44384    | 0.44384    | 0.44384    |   0.0 |  7.30
Other   |            | 0.03307    |            |       |  0.54

Nlocal:             96 ave          96 max          96 min
Histogram: 1 0 0 0 0 0 0 0 0 0
Nghost:            492 ave         492 max         492 min
Histogram: 1 0 0 0 0 0 0 0 0 0
Neighs:              0 ave           0 max           0 min
Histogram: 1 0 0 0 0 0 0 0 0 0
FullNghs:         2774 ave        2774 max        2774 min
Histogram: 1 0 0 0 0 0 0 0 0 0

Total # of neighbors = 2774
Ave neighs/atom = 28.895833
Ave special neighs/atom = 0
Neighbor list builds = 1884
Dangerous builds = 0

fix npt1 all npt temp 2000 1000 0.1 iso 0 0 1
run 80000
Per MPI rank memory allocation (min/avg/max) = 8.549 | 8.549 | 8.549 Mbytes
   Step          Temp          E_pair         E_mol          TotEng         Press          Volume    
    560000   2286.1259     -606.33079      0             -578.25782      13025.921      1507.3058    
    561000   1795.7907     -604.83979      0             -582.78799      13291.199      1517.131     
    562000   1836.3772     -606.40913      0             -583.85894     -22582.168      1570.2921    
    563000   2049.7717     -601.74516      0             -576.57455     -13521.471      1558.0973    
    564000   1954.8077     -609.37398      0             -585.3695      -13319.279      1554.96      
    565000   2025.1454     -607.56482      0             -582.69661     -8315.2378      1550.9848    
    566000   1931.745      -606.88577      0             -583.1645      -39832.162      1550.3077    
    567000   2205.0467     -606.20321      0             -579.12587     -23070.141      1555.1231    
    568000   1800.7469     -604.27937      0             -582.16672     -7165.1455      1494.3862    
    569000   1633.7137     -609.12062      0             -589.05909      27820.352      1509.0351    
    570000   1749.5396     -606.05729      0             -584.57345     -22211.752      1605.5342    
    571000   2130.9452     -605.29995      0             -579.13256     -14652.453      1539.2989    
    572000   1753.3626     -607.85003      0             -586.31924      19304.67       1545.1833    
    573000   1758.5145     -602.88277      0             -581.28872     -23693.212      1555.0992    
    574000   1942.3565     -612.17573      0             -588.32415      1661.9739      1539.882     
    575000   2037.2293     -608.5831       0             -583.56651      5634.2276      1550.6057    
    576000   1769.776      -606.60521      0             -584.87287      14248.62       1524.1633    
    577000   1765.8843     -609.07312      0             -587.38857     -5790.1645      1548.8956    
    578000   1886.3048     -606.96445      0             -583.80117     -7586.8982      1529.6385    
    579000   1695.5626     -606.87229      0             -586.05127     -2657.6621      1534.4394    
    580000   1678.7612     -607.47446      0             -586.85976      1163.6044      1543.8564    
    581000   1685.8954     -608.78257      0             -588.08026      31392.22       1506.9739    
    582000   1574.8388     -607.43713      0             -588.09857     -16108.995      1579.9042    
    583000   1659.7151     -610.9688       0             -590.58797     -11597.402      1522.0864    
    584000   1807.9634     -605.88457      0             -583.6833      -1136.877       1545.2683    
    585000   1620.8883     -608.52779      0             -588.62374      4289.4419      1547.9097    
    586000   1756.6346     -608.5301       0             -586.95913      444.67565      1514.8012    
    587000   1478.0787     -607.82105      0             -589.67066      1590.7673      1525.4168    
    588000   1580.2623     -615.20614      0             -595.80097      10548.145      1536.3791    
    589000   1732.4708     -609.79849      0             -588.52424     -15828.812      1565.0535    
    590000   1664.9645     -612.61824      0             -592.17296     -6694.8244      1540.3783    
    591000   1468.6369     -612.27027      0             -594.23583      7684.5322      1532.4967    
    592000   1454.3578     -611.46885      0             -593.60975     -18305.212      1537.3164    
    593000   1506.9685     -611.39118      0             -592.88604      5848.7925      1521.138     
    594000   1731.5729     -611.73211      0             -590.46889     -8328.7775      1518.5971    
    595000   1678.2843     -610.74327      0             -590.13442      9605.4435      1561.0082    
    596000   1631.1858     -609.81541      0             -589.78491     -18824.833      1511.185     
    597000   1300.3334     -612.8515       0             -596.88378      11526.932      1525.3342    
    598000   1361.5091     -610.62733      0             -593.90839     -9898.8878      1541.1821    
    599000   1503.6256     -612.27249      0             -593.80839     -7215.9207      1557.6064    
    600000   1470.9923     -614.46471      0             -596.40135      928.04787      1515.9895    
    601000   1438.9535     -611.64418      0             -593.97424     -13445.836      1520.4783    
    602000   1463.1594     -614.41448      0             -596.4473      -13040.725      1540.8514    
    603000   1724.2486     -612.87886      0             -591.70558      1902.2342      1554.1305    
    604000   1341.9303     -613.69301      0             -597.21449      4496.0535      1518.1289    
    605000   1543.2389     -611.26986      0             -592.31933      7760.6449      1525.985     
    606000   1528.2606     -612.73979      0             -593.97319     -15302.5        1538.429     
    607000   1485.7219     -614.16844      0             -595.9242       15094.198      1533.5769    
    608000   1506.5374     -611.62937      0             -593.12952     -9832.7415      1536.6853    
    609000   1418.476      -615.15208      0             -597.7336       10127.868      1526.6133    
    610000   1627.7115     -613.36731      0             -593.37948     -9543.278       1544.597     
    611000   1288.3029     -614.40208      0             -598.58209     -3762.801       1498.0353    
    612000   1186.0347     -610.89843      0             -596.33426     -9191.8438      1529.1923    
    613000   1350.9006     -614.58771      0             -597.99904      12123.164      1525.357     
    614000   1261.5126     -614.66263      0             -599.17161     -10475.797      1537.7915    
    615000   1212.1441     -616.1319       0             -601.24712      8009.529       1517.4565    
    616000   1326.3846     -615.87861      0             -599.59099      4665.1373      1528.909     
    617000   1177.7279     -616.07654      0             -601.61438     -6222.1956      1528.8675    
    618000   1305.6368     -615.00089      0             -598.96805     -10321.642      1543.9536    
    619000   1379.3985     -614.99569      0             -598.05707      25856          1515.9503    
    620000   1410.2934     -617.89727      0             -600.57927      1985.9744      1524.2959    
    621000   1254.651      -616.1742       0             -600.76744      11475.795      1537.5671    
    622000   1313.0053     -615.14977      0             -599.02644      12616.353      1508.049     
    623000   1125.1201     -616.30094      0             -602.48478      12147.405      1511.9462    
    624000   1208.6767     -616.91866      0             -602.07646     -24340.444      1529.3447    
    625000   1250.226      -615.20814      0             -599.85572      9061.1331      1523.8404    
    626000   1069.7284     -616.21579      0             -603.07983     -4208.845       1509.4369    
    627000   1284.689      -616.2829       0             -600.50729     -6535.7568      1526.6317    
    628000   1354.0917     -617.86538      0             -601.23752      18432.405      1510.7539    
    629000   1074.8414     -617.02905      0             -603.8303       10369.519      1508.3184    
    630000   1266.507      -617.77813      0             -602.22578     -17874.899      1535.393     
[...]
Neighs:              0 ave           0 max           0 min
Histogram: 1 0 0 0 0 0 0 0 0 0
FullNghs:         2806 ave        2806 max        2806 min
Histogram: 1 0 0 0 0 0 0 0 0 0

Total # of neighbors = 2806
Ave neighs/atom = 29.229167
Ave special neighs/atom = 0
Neighbor list builds = 105
Dangerous builds = 0


fix npt1 all npt temp 500 10 0.1 iso 0 0 1
run 80000
Per MPI rank memory allocation (min/avg/max) = 8.549 | 8.549 | 8.549 Mbytes
   Step          Temp          E_pair         E_mol          TotEng         Press          Volume    
    880000   504.03438     -626.06336      0             -619.87396     -9241.9819      1510.5447    
    881000   544.69038     -626.57192      0             -619.88328     -17880.349      1522.4997    
    882000   522.2743      -626.64628      0             -620.23291      2176.0575      1493.1878    
    883000   446.52301     -625.79704      0             -620.31387     -10950.117      1519.6449    
    884000   451.43195     -626.4236       0             -620.88014      673.54782      1494.1975    
    885000   436.27428     -626.37633      0             -621.01901      7231.4782      1479.7521    
    886000   506.65429     -626.2036       0             -619.98203      13778.073      1473.037     
    887000   462.94336     -626.82621      0             -621.1414       5710.1468      1490.6825    
    888000   423.09163     -625.85792      0             -620.66248      14883.986      1473.7814    
    889000   410.37105     -627.38665      0             -622.34741      6365.0506      1471.4946    
    890000   434.78796     -626.63271      0             -621.29364      10301.012      1495.0719    
    891000   380.83703     -626.34546      0             -621.66889     -4892.7004      1506.4079    
    892000   425.67324     -627.7753       0             -622.54815      16766.174      1483.6674    
    893000   473.6642      -627.16529      0             -621.34883     -2285.3663      1504.3237    
    894000   354.62374     -628.44033      0             -624.08566     -5695.5367      1508.8164    
    895000   406.70123     -626.72767      0             -621.7335       3819.0096      1495.8052    
    896000   421.64966     -626.95935      0             -621.78162     -2179.4399      1498.3297    
    897000   377.12488     -627.16963      0             -622.53864     -4987.9627      1505.7501    
    898000   424.12497     -626.95919      0             -621.75105     -3263.8505      1496.5314    
    899000   358.25535     -627.50973      0             -623.11046      2502.9354      1490.097     
    900000   402.21495     -626.78862      0             -621.84953      4963.0528      1477.3206    
    901000   368.56149     -628.09427      0             -623.56844      1764.4255      1491.2029    
    902000   369.37338     -627.00427      0             -622.46847     -10546.061      1510.3154    
    903000   375.8874      -627.38444      0             -622.76865      5652.1275      1507.4197    
    904000   346.741       -628.99439      0             -624.73651      3040.6494      1497.9571    
    905000   313.74955     -627.80536      0             -623.95261      4813.4453      1491.6489    
    906000   362.8964      -628.31199      0             -623.85572      21662.778      1477.4302    
    907000   353.50838     -628.64283      0             -624.30185      9714.6208      1477.0064    
    908000   357.45619     -627.65429      0             -623.26483     -5762.149       1491.4354    
    909000   330.59052     -628.19769      0             -624.13813     -2957.0484      1507.2405    
    910000   289.2798      -627.94575      0             -624.39348     -5452.0621      1503.5724    
    911000   319.03605     -628.47498      0             -624.5573      -2094.2594      1502.4634    
    912000   323.45202     -628.12619      0             -624.15429     -13405.934      1520.0576    
    913000   322.11118     -628.98497      0             -625.02954     -889.46395      1490.242     
    914000   310.59701     -629.11162      0             -625.29757     -2724.9696      1499.767     
    915000   261.67842     -628.77152      0             -625.55818     -8296.2114      1505.1835    
    916000   342.99498     -628.87587      0             -624.66399     -6081.9087      1496.0819    
    917000   290.10984     -629.45546      0             -625.89299      991.42655      1495.0827    
    918000   280.78236     -629.33589      0             -625.88796     -3669.4704      1487.5498    
    919000   265.43615     -628.40621      0             -625.14673     -6438.1552      1496.1541    
    920000   259.0706      -629.11209      0             -625.93078     -80.245945      1485.0042    
    921000   225.04733     -629.77967      0             -627.01616      6376.4775      1479.969     
    922000   237.83972     -629.18435      0             -626.26375      6117.5177      1472.5091    
    923000   222.79456     -629.5405       0             -626.80465     -679.57691      1487.6911    
    924000   232.32006     -629.51433      0             -626.6615       778.37847      1488.1989    
    925000   225.88592     -630.10949      0             -627.33568     -11052.838      1508.8251    
    926000   237.95624     -629.93942      0             -627.01738      1603.2849      1481.8988    
    927000   241.05151     -629.6426       0             -626.68256     -9788.7806      1489.6279    
    928000   178.39888     -629.74273      0             -627.55204     -4050.8838      1484.0243    
    929000   205.37333     -630.3006       0             -627.77867     -657.02515      1490.9058    
    930000   213.00438     -630.02589      0             -627.41026     -5531.1281      1498.596     
    931000   200.58588     -630.29296      0             -627.82982      2766.1233      1487.3804    
    932000   185.79016     -630.58156      0             -628.30011     -4346.6593      1479.8852    
    933000   161.23702     -630.1398       0             -628.15985     -3225.6771      1493.5718    
    934000   170.20414     -630.32446      0             -628.2344       3045.8613      1483.4945    
    935000   168.29912     -630.59809      0             -628.53142      3902.0558      1486.676     
    936000   156.82839     -630.57451      0             -628.64871     -2573.6616      1481.6356    
    937000   155.74282     -630.52948      0             -628.617        2073.1094      1489.6542    
    938000   138.3952      -630.60171      0             -628.90226     -2435.1904      1481.8195    
    939000   140.90719     -630.63405      0             -628.90375      5643.6449      1486.4469    
    940000   139.00191     -630.91503      0             -629.20812      2024.9163      1485.3333    
    941000   129.29028     -631.10971      0             -629.52206     -2737.1598      1486.6867    
    942000   121.14434     -630.95419      0             -629.46657      3447.0284      1487.7985    
    943000   107.3857      -631.00807      0             -629.68941      4442.7815      1477.4803    
    944000   116.3299      -631.22066      0             -629.79216      1154.7516      1484.523     
    945000   109.8698      -631.10094      0             -629.75177      669.50908      1483.5356    
    946000   86.114578     -631.19301      0             -630.13555      1793.778       1484.2791    
    947000   78.97051      -631.45347      0             -630.48374     -2053.3987      1488.1397    
    948000   88.175388     -631.44912      0             -630.36636     -3399.3564      1489.0558    
    949000   79.694963     -631.63389      0             -630.65526     -2317.3362      1487.8438    
    950000   81.467778     -631.5111       0             -630.5107       1507.2626      1481.5175    
    951000   70.154643     -631.71706      0             -630.85559      7121.4489      1480.0612    
    952000   59.223555     -631.68135      0             -630.9541      -3410.6596      1486.1688    
    953000   55.419014     -631.79279      0             -631.11226     -1448.1917      1485.1521    
    954000   46.463081     -631.78264      0             -631.21208     -936.7794       1484.8806    
    955000   43.040759     -631.89687      0             -631.36834      3004.8319      1482.2456    
    956000   35.483163     -632.00737      0             -631.57165     -1626.6297      1490.5732    
    957000   26.585345     -632.15747      0             -631.83101     -800.71818      1486.4435    
    958000   25.485826     -632.19613      0             -631.88317      137.33249      1484.1939    
    959000   14.25044      -632.24545      0             -632.07046     -1554.8408      1483.0902    
    960000   10.229632     -632.33801      0             -632.21239     -1576.3308      1484.7249    
Loop time of 5.35347 on 1 procs for 80000 steps with 96 atoms

Performance: 1291.125 ns/day, 0.019 hours/ns, 14943.576 timesteps/s, 1.435 Matom-step/s
98.9% CPU use with 1 MPI tasks x no OpenMP threads

MPI task timing breakdown:
Section |  min time  |  avg time  |  max time  |%varavg| %total
---------------------------------------------------------------
Pair    | 4.7119     | 4.7119     | 4.7119     |   0.0 | 88.02
Bond    | 0.0028793  | 0.0028793  | 0.0028793  |   0.0 |  0.05
Neigh   | 0.0042007  | 0.0042007  | 0.0042007  |   0.0 |  0.08
Comm    | 0.16354    | 0.16354    | 0.16354    |   0.0 |  3.05
Output  | 0.010246   | 0.010246   | 0.010246   |   0.0 |  0.19
Modify  | 0.43621    | 0.43621    | 0.43621    |   0.0 |  8.15
Other   |            | 0.02447    |            |       |  0.46

Nlocal:             96 ave          96 max          96 min
Histogram: 1 0 0 0 0 0 0 0 0 0
Nghost:            476 ave         476 max         476 min
Histogram: 1 0 0 0 0 0 0 0 0 0
Neighs:              0 ave           0 max           0 min
Histogram: 1 0 0 0 0 0 0 0 0 0
FullNghs:         2822 ave        2822 max        2822 min
Histogram: 1 0 0 0 0 0 0 0 0 0

Total # of neighbors = 2822
Ave neighs/atom = 29.395833
Ave special neighs/atom = 0
Neighbor list builds = 32
Dangerous builds = 0

fix npt1 all npt temp 10 10 0.1 iso 0 0 1
run 80000
Per MPI rank memory allocation (min/avg/max) = 8.549 | 8.549 | 8.549 Mbytes
   Step          Temp          E_pair         E_mol          TotEng         Press          Volume    
    960000   10.229632     -632.33801      0             -632.21239     -1576.3308      1484.7249    
    961000   10.547092     -632.34603      0             -632.21651     -1680.5291      1484.1177    
    962000   9.2754542     -632.36265      0             -632.24875     -1023.789       1484.5374    
    963000   10.173455     -632.34593      0             -632.221        534.81026      1485.9068    
    964000   9.6695418     -632.34227      0             -632.22353      161.09682      1484.7156    
    965000   9.0565641     -632.36851      0             -632.2573       743.52807      1483.7545    
    966000   10.86224      -632.3512       0             -632.21782     -168.54253      1485.544     
    967000   10.200026     -632.329        0             -632.20374     -3229.5792      1486.1716    
    968000   9.0185908     -632.34892      0             -632.23817     -1195.5198      1483.7386    
    969000   10.944867     -632.3439       0             -632.2095      -2539.6666      1484.8212    
    970000   10.244699     -632.36506      0             -632.23926     -1138.3971      1486.0708    
    971000   10.082334     -632.35292      0             -632.22912     -651.80102      1485.3442    
    972000   9.309833      -632.33894      0             -632.22461      1307.5415      1485.1414    
    973000   8.030369      -632.35096      0             -632.25235     -245.46063      1481.8049    
    974000   11.089681     -632.36084      0             -632.22467     -2402.1471      1485.5166    
    975000   9.8719592     -632.35743      0             -632.2362      -138.85392      1485.1953    
    976000   12.266113     -632.34127      0             -632.19065      366.13428      1485.6507    
    977000   9.6847881     -632.35577      0             -632.23685      969.83536      1481.6353    
    978000   8.2491144     -632.35846      0             -632.25716      661.70144      1484.3992    
    979000   9.1158273     -632.34776      0             -632.23582      274.29419      1484.9659    
    980000   9.7182859     -632.37767      0             -632.25834     -1101.4658      1483.927     
    981000   10.946851     -632.35559      0             -632.22117     -2704.095       1486.1716    
    982000   10.420484     -632.35895      0             -632.23099      699.91427      1482.1914    
    983000   9.7984031     -632.36448      0             -632.24416     -276.75472      1484.1828    
    984000   9.7331693     -632.35831      0             -632.23879      113.21569      1486.0422    
    985000   10.408105     -632.36232      0             -632.23451     -1690.4547      1486.0521    
    986000   8.7547315     -632.35674      0             -632.24923     -321.17566      1484.7627    
    987000   10.548361     -632.36112      0             -632.23159      734.0937       1482.8906    
    988000   9.4408711     -632.35952      0             -632.24359     -1318.1555      1487.6876    
    989000   9.5586083     -632.36748      0             -632.25011      1853.1472      1482.7214    
    990000   10.865186     -632.34501      0             -632.21158     -577.27409      1483.3463    
    991000   9.7841161     -632.36629      0             -632.24615      1557.8476      1484.7672    
    992000   11.894339     -632.34587      0             -632.19981      2335.9843      1484.7198    
    993000   10.454695     -632.3589       0             -632.23052      507.17425      1483.371     
    994000   9.8804882     -632.35799      0             -632.23667     -330.60458      1485.4253    
    995000   11.094626     -632.36064      0             -632.2244       857.70263      1485.2304    
    996000   10.940943     -632.36947      0             -632.23512     -1205.8727      1485.653     
    997000   9.9353726     -632.36259      0             -632.24058      422.11959      1485.232     
    998000   10.437888     -632.34894      0             -632.22077     -133.62591      1484.6516    
    999000   9.917004      -632.36384      0             -632.24206      142.96606      1485.254     
   1000000   10.341074     -632.35565      0             -632.22866     -1904.3871      1485.1655    
   1001000   10.033187     -632.34785      0             -632.22464      743.97377      1483.7145    
   1002000   10.038371     -632.36931      0             -632.24604      2844.8848      1482.5028    
   1003000   11.228982     -632.37043      0             -632.23254      564.79532      1483.7485    
   1004000   9.4727601     -632.3452       0             -632.22888      345.07682      1486.4108    
   1005000   9.1082121     -632.35321      0             -632.24136      1350.9681      1481.613     
   1006000   9.4822325     -632.34704      0             -632.2306       1414.9631      1483.6436    
   1007000   10.628679     -632.3404       0             -632.20988      689.15555      1484.6424    
   1008000   9.9596803     -632.36817      0             -632.24586     -1431.7683      1485.6155    
   1009000   8.4487658     -632.35934      0             -632.25559     -1097.9311      1483.8778    
   1010000   10.231461     -632.3534       0             -632.22776     -782.16133      1484.3807    
   1011000   9.1168375     -632.37221      0             -632.26026     -666.87872      1483.3357    
   1012000   9.678605      -632.35941      0             -632.24056      991.51693      1486.4676    
   1013000   11.505855     -632.34642      0             -632.20513      1143.4518      1484.1124    
   1014000   9.5384355     -632.35536      0             -632.23823     -2340.3468      1486.4097    
   1015000   10.213022     -632.33536      0             -632.20995     -1921.7681      1485.0618    
   1016000   10.20308      -632.35954      0             -632.23425      1060.279       1483.9828    
   1017000   8.6874186     -632.37188      0             -632.2652       737.57154      1481.3182    
   1018000   9.2335836     -632.34322      0             -632.22983     -936.47977      1482.6204    
   1019000   9.4038166     -632.36661      0             -632.25113     -225.30821      1483.5102    
   1020000   8.8497681     -632.35141      0             -632.24274      53.983308      1484.8621    
   1021000   10.203164     -632.34419      0             -632.21889      2191.5495      1483.1481    
   1022000   8.4710352     -632.35527      0             -632.25125     -723.60724      1486.9691    
   1023000   10.691522     -632.3464       0             -632.21511     -226.36217      1481.5475    
   1024000   9.3801685     -632.36402      0             -632.24883      1410.8495      1485.6803    
   1025000   10.733196     -632.34975      0             -632.21795      478.28907      1483.3248    
   1026000   10.525728     -632.35498      0             -632.22572      617.95819      1483.5593    
   1027000   9.6573643     -632.36865      0             -632.25006     -1782.8512      1485.6386    
   1028000   9.8146975     -632.34387      0             -632.22335     -732.0488       1485.6171    
   1029000   10.231893     -632.35511      0             -632.22947      46.674791      1484.8482    
   1030000   9.253888      -632.35603      0             -632.24239      495.78456      1484.7743    
   1031000   12.211391     -632.35076      0             -632.20081     -199.1733       1483.7085    
   1032000   9.0541808     -632.35892      0             -632.24774     -568.19561      1484.8507    
   1033000   10.219507     -632.35499      0             -632.22949     -904.16147      1484.4371    
   1034000   10.891759     -632.35378      0             -632.22004     -87.323979      1484.6992    
   1035000   9.686429      -632.35411      0             -632.23516      1885.9636      1485.8663    
   1036000   10.519294     -632.33327      0             -632.2041      -1189.8384      1484.5312    
   1037000   10.448545     -632.34057      0             -632.21227      2310.7834      1482.6083    
   1038000   9.5607401     -632.35038      0             -632.23297      1045.6748      1484.3396    
   1039000   9.061778      -632.33799      0             -632.22672      5935.9299      1480.912     
   1040000   10.509269     -632.35451      0             -632.22546      2450.5892      1481.5664    
Loop time of 5.29665 on 1 procs for 80000 steps with 96 atoms

Performance: 1304.977 ns/day, 0.018 hours/ns, 15103.900 timesteps/s, 1.450 Matom-step/s
99.3% CPU use with 1 MPI tasks x no OpenMP threads

MPI task timing breakdown:
Section |  min time  |  avg time  |  max time  |%varavg| %total
---------------------------------------------------------------
Pair    | 4.669      | 4.669      | 4.669      |   0.0 | 88.15
Bond    | 0.0029037  | 0.0029037  | 0.0029037  |   0.0 |  0.05
Neigh   | 0          | 0          | 0          |   0.0 |  0.00
Comm    | 0.16399    | 0.16399    | 0.16399    |   0.0 |  3.10
Output  | 0.0093543  | 0.0093543  | 0.0093543  |   0.0 |  0.18
Modify  | 0.42718    | 0.42718    | 0.42718    |   0.0 |  8.07
Other   |            | 0.0242     |            |       |  0.46

Nlocal:             96 ave          96 max          96 min
Histogram: 1 0 0 0 0 0 0 0 0 0
Nghost:            482 ave         482 max         482 min
Histogram: 1 0 0 0 0 0 0 0 0 0
Neighs:              0 ave           0 max           0 min
Histogram: 1 0 0 0 0 0 0 0 0 0
FullNghs:         2810 ave        2810 max        2810 min
Histogram: 1 0 0 0 0 0 0 0 0 0

Total # of neighbors = 2810
Ave neighs/atom = 29.270833
Ave special neighs/atom = 0
Neighbor list builds = 0
Dangerous builds = 0


write_data amorphousSiO.data
System init for write_data ...


Total wall time: 0:01:18
