96
 Atoms. Timestep: 0
2 0 7.95642 4.74695
2 4.63304 0 11.358
2 0 4.63304 4.74695
2 7.95642 0 11.358
2 0 4.63304 8.47514
2 7.95642 0 1.8641
2 0 7.95642 8.47514
2 4.63304 0 1.8641
2 10.7421 8.43088 6.61105
2 4.15858 10.7421 0
2 1.84736 4.15858 6.61105
2 8.43088 1.84736 0
2 1.84736 8.43088 6.61105
2 8.43088 10.7421 0
2 10.7421 4.15858 6.61105
2 4.15858 1.84736 0
2 10.5201 6.29473 5.04003
2 6.29473 10.5201 11.6511
2 2.06934 6.29473 5.04003
2 6.29473 2.06934 11.6511
2 2.06934 6.29473 8.18207
2 6.29473 2.06934 1.57102
2 10.5201 6.29473 8.18207
2 6.29473 10.5201 1.57102
2 10.1594 8.65935 9.20274
2 3.93011 10.1594 2.59169
2 2.43004 3.93011 9.20274
2 8.65935 2.43004 2.59169
2 2.43004 8.65935 9.20274
2 8.65935 10.1594 2.59169
2 10.1594 3.93011 9.20274
2 3.93011 2.43004 2.59169
2 2.43004 3.93011 4.01936
2 8.65935 2.43004 10.6304
2 10.1594 8.65935 4.01936
2 3.93011 10.1594 10.6304
2 10.1594 3.93011 4.01936
2 3.93011 2.43004 10.6304
2 2.43004 8.65935 4.01936
2 8.65935 10.1594 10.6304
2 0 10.703 0
2 1.88643 0 6.61105
2 0 1.88643 0
2 10.703 0 6.61105
2 0 0 1.872
2 0 0 8.48305
2 0 0 11.3501
2 0 0 4.73905
2 11.2706 2.31295 2.18973
2 10.2765 11.2706 8.80078
2 1.31887 10.2765 2.18973
2 2.31295 1.31887 8.80078
2 1.31887 2.31295 2.18973
2 2.31295 11.2706 8.80078
2 11.2706 10.2765 2.18973
2 10.2765 1.31887 8.80078
2 1.31887 10.2765 11.0324
2 2.31295 1.31887 4.42131
2 11.2706 2.31295 11.0324
2 10.2765 11.2706 4.42131
2 11.2706 10.2765 11.0324
2 10.2765 1.31887 4.42131
2 1.31887 2.31295 11.0324
2 2.31295 11.2706 4.42131
1 11.0086 7.83654 8.10972
1 4.75292 11.0086 1.49867
1 1.5809 4.75292 8.10972
1 7.83654 1.5809 1.49867
1 1.5809 7.83654 8.10972
1 7.83654 11.0086 1.49867
1 11.0086 4.75292 8.10972
1 4.75292 1.5809 1.49867
1 1.5809 4.75292 5.11238
1 7.83654 1.5809 11.7234
1 11.0086 7.83654 5.11238
1 4.75292 11.0086 11.7234
1 11.0086 4.75292 5.11238
1 4.75292 1.5809 11.7234
1 1.5809 7.83654 5.11238
1 7.83654 11.0086 11.7234
1 10.1088 10.1088 3.30552
1 2.48067 10.1088 9.91657
1 2.48067 2.48067 3.30552
1 10.1088 2.48067 9.91657
1 2.48067 10.1088 3.30552
1 10.1088 10.1088 9.91657
1 10.1088 2.48067 3.30552
1 2.48067 2.48067 9.91657
1 0 1.60471 1.57853
1 10.9848 0 8.18958
1 0 10.9848 1.57853
1 1.60471 0 8.18958
1 0 10.9848 11.6436
1 1.60471 0 5.03252
1 0 1.60471 11.6436
1 10.9848 0 5.03252
96
 Atoms. Timestep: 2000
2 12.1924 8.05404 5.1554
2 4.53297 12.515 11.6917
2 11.8372 5.2838 5.15393
2 8.77432 12.4523 12.3841
2 0.0743615 4.02999 8.37516
2 7.25465 0.0688187 2.60273
2 -0.212797 7.79575 8.75862
2 4.28861 12.3732 1.25072
2 10.075 7.80228 6.97485
2 5.07751 10.2843 0.344489
2 1.18104 4.00124 6.58342
2 7.65683 1.00236 0.270532
2 1.57423 8.50237 6.05267
2 8.27835 10.8282 0.0258497
2 10.3977 4.04123 6.35991
2 4.65633 1.70195 12.8727
2 10.0783 6.54744 4.68481
2 6.34189 10.5352 11.9413
2 0.554934 6.64062 5.03409
2 6.82075 1.00091 12.0147
2 1.08397 6.31527 7.66162
2 5.7223 1.76622 1.75867
2 11.3038 5.65719 8.36462
2 6.65189 10.9068 1.58
2 10.8736 8.43475 9.35847
2 4.07419 10.0561 3.15496
2 2.60883 3.2203 8.9174
2 8.07983 2.335 3.13244
2 2.59762 8.9798 8.57012
2 9.16503 10.7483 2.29659
2 10.6916 3.51122 9.34133
2 2.85399 4.47843 2.10193
2 1.01885 4.68406 3.67038
2 9.78618 1.73988 11.4022
2 10.1624 8.93407 4.09254
2 3.7998 9.90038 11.2872
2 9.5624 4.12597 4.02184
2 4.37741 1.7993 10.3947
2 1.85776 9.0073 3.89702
2 8.13072 9.93156 10.6565
2 0.68969 10.6454 0.105372
2 2.19504 0.388941 6.43507
2 -0.239889 1.78586 13.1018
2 11.2969 0.480247 6.56366
2 12.6772 0.108114 1.76556
2 -0.261538 12.3897 8.44706
2 0.406026 12.612 11.0778
2 -0.026987 0.654033 4.20608
2 11.1976 2.62349 2.16226
2 10.83 11.0922 8.66887
2 1.6974 11.1171 2.26916
2 2.34035 0.894229 8.56335
2 0.971259 2.92371 1.34853
2 2.69488 11.2645 8.53129
2 11.9612 10.5683 2.74628
2 11.2651 0.988305 8.84863
2 1.7142 10.6548 10.7282
2 1.64461 1.56635 3.52314
2 12.2499 2.56139 10.618
2 10.3215 12.0031 4.31272
2 9.58504 8.15757 10.9101
2 10.0161 1.14203 4.78869
2 2.02244 1.62991 10.8393
2 2.07101 11.8532 4.49153
1 11.1142 7.24576 8.36126
1 5.14217 10.7395 2.0802
1 1.43388 4.37825 8.11519
1 7.36148 1.8059 1.68342
1 1.3809 8.25148 7.73767
1 7.84449 11.7645 1.31351
1 11.4157 4.14923 7.79867
1 4.48035 0.856038 0.740081
1 0.704536 4.98832 5.27705
1 8.33228 1.11252 12.2988
1 10.2924 7.96197 5.47995
1 4.82843 10.9005 12.3281
1 10.2237 4.9726 4.94264
1 5.32593 1.11915 11.4448
1 0.841901 8.11897 4.56339
1 8.04454 10.7975 12.0828
1 10.2954 10.6121 3.51443
1 3.02641 10.1579 9.93015
1 1.73852 3.35906 2.9676
1 10.8046 2.13683 10.1626
1 2.28524 10.5825 3.66747
1 9.82824 9.79595 9.84395
1 9.83199 2.44475 3.39201
1 2.98114 1.93401 9.75999
1 12.592 1.61188 1.205
1 11.1215 12.5435 8.12328
1 -0.0090469 11.6262 1.77952
1 1.56217 12.5195 7.92502
1 1.05364 11.2589 12.1307
1 1.57711 0.357563 4.80751
1 0.488308 1.50926 11.2428
1 11.4768 0.255161 4.97792
96
 Atoms. Timestep: 4000
2 0.117727 7.95141 4.34765
2 4.55713 -0.117567 11.3922
2 0.220542 4.61697 4.71266
2 8.93203 12.6938 11.8271
2 0.151981 4.95463 8.93132
2 7.87431 0.174658 1.96135
2 12.3635 7.94887 8.36926
2 4.10275 12.7313 1.01931
2 11.031 7.88036 6.11756
2 5.1506 11.5022 12.9916
2 1.70059 4.19185 6.47934
2 8.10967 1.41314 0.168578
2 1.68311 8.21706 6.41348
2 8.91799 11.2797 0.0961347
2 12.11 5.07782 7.29272
2 5.10954 1.84918 -0.0247238
2 11.4487 6.15145 5.27551
2 6.93525 10.7625 11.6367
2 2.58019 6.29175 4.98529
2 6.66954 1.10407 12.2364
2 1.67304 6.46911 8.10096
2 5.9845 1.25842 1.96431
2 10.7579 6.22354 8.84725
2 6.00808 11.2641 1.44389
2 9.89641 8.90134 8.04547
2 4.09371 10.3482 2.45384
2 2.41069 3.53659 9.05098
2 8.99699 2.11478 2.40259
2 1.63022 9.16064 8.93275
2 9.02353 10.3774 2.21598
2 10.5146 3.39861 8.90945
2 3.41207 1.94487 2.31442
2 2.54479 3.75073 3.9752
2 9.0311 1.66133 10.7318
2 10.5435 8.59475 3.51164
2 4.30858 10.6132 10.1016
2 11.6466 3.25498 4.6647
2 3.84754 1.76588 10.7963
2 2.35603 9.06036 4.45935
2 9.31218 9.82278 10.6803
2 0.364147 11.6234 -0.045661
2 0.634419 0.478731 7.10244
2 12.1529 1.6263 13.2277
2 10.207 0.0144931 6.48753
2 12.2882 -0.0711775 1.17199
2 11.9253 12.3963 8.95486
2 2.14021 12.8837 12.3302
2 12.4833 12.7008 5.6126
2 11.0834 1.78015 2.24943
2 9.54841 11.4101 9.08975
2 1.29098 10.7876 2.05578
2 1.09797 1.15665 9.77508
2 0.730659 2.31516 1.61951
2 1.72092 11.6828 9.1477
2 12.0858 10.5752 2.33621
2 9.51174 0.739562 8.84271
2 1.94834 10.6488 11.3427
2 1.70784 0.842169 4.11692
2 11.4842 1.59466 10.6168
2 10.5852 10.913 4.38493
2 7.59446 9.98854 9.59067
2 10.1836 0.729001 4.19405
2 0.817387 2.859 11.5358
2 2.20737 11.7554 4.39713
1 10.8379 7.79442 7.80335
1 4.47222 11.0786 0.920455
1 1.51783 4.8103 8.36542
1 7.51483 1.69023 1.6179
1 0.993153 8.04091 7.95832
1 7.70523 11.3506 1.51767
1 11.5697 4.83843 9.11694
1 4.50213 1.22277 1.38033
1 2.24786 4.67552 5.03376
1 8.48616 1.18008 12.1344
1 11.5191 7.76511 4.71618
1 4.97166 11.2776 11.4616
1 11.8817 4.47548 5.67762
1 5.05417 1.24985 11.9428
1 1.73213 7.64734 4.99848
1 8.6889 10.9908 12.1134
1 10.5555 10.1341 3.00136
1 2.63052 10.4198 9.63043
1 1.77231 2.1772 2.82026
1 10.0746 1.84682 9.60155
1 2.34631 10.2978 3.32965
1 9.2051 9.90782 9.11462
1 10.5599 2.64996 3.58176
1 2.08039 2.30402 10.3852
1 12.2747 1.39029 1.16235
1 10.0925 12.6469 7.8714
1 -0.187209 11.4706 1.33331
1 0.41618 12.8448 8.63731
1 1.01477 11.8261 11.9843
1 1.42251 12.8046 5.32834
1 12.1043 2.83474 11.8695
1 10.9816 12.5451 4.83402
96
 Atoms. Timestep: 6000
2 12.0876 8.96863 4.97362
2 4.72345 12.2536 10.7205
2 12.0686 4.78539 3.37931
2 8.09682 12.4525 10.6169
2 1.16313 3.90413 7.8532
2 6.76479 0.177371 0.775977
2 0.404346 7.54064 7.65615
2 4.34117 12.2278 0.859747
2 10.0604 7.76518 6.41706
2 4.15813 10.8698 12.6102
2 3.60791 3.71755 7.63175
2 7.56727 2.28433 12.5071
2 2.21351 7.84899 6.19403
2 8.57837 10.9625 13.0937
2 12.0345 3.77705 5.97996
2 6.01139 12.4351 8.95713
2 10.5978 6.46436 4.7419
2 6.55872 10.3555 11.6882
2 1.2056 6.85248 3.85029
2 6.49225 1.51724 10.8983
2 2.80953 6.24109 8.38226
2 5.2458 1.92733 1.59108
2 11.6174 5.80657 7.96162
2 6.41959 10.6544 1.19696
2 10.6801 8.30156 8.83799
2 3.61832 10.9842 2.64663
2 2.50344 4.06184 9.77134
2 8.63 2.32896 1.99177
2 2.52589 8.97725 8.17672
2 8.37419 11.1027 2.79226
2 11.5219 3.24119 9.06733
2 2.5512 1.62555 2.16964
2 1.96619 4.28429 2.66185
2 9.00658 2.379 10.3161
2 10.2838 9.43738 3.82154
2 3.68937 9.50631 10.76
2 9.81252 4.04013 3.98684
2 4.07066 1.71741 10.8086
2 1.98557 10.1428 4.4956
2 8.55089 9.89805 10.3009
2 12.8402 9.6453 1.27597
2 2.01307 1.25304 7.32542
2 12.5012 2.07183 0.684065
2 11.4668 0.554247 7.56722
2 12.6673 0.0839283 1.58827
2 0.362682 12.1174 8.91335
2 10.561 7.67482 0.503284
2 12.3524 0.828942 5.29474
2 10.7261 1.91488 2.441
2 11.1098 10.7477 9.21041
2 1.49451 11.3996 2.61415
2 2.17624 1.03715 10.0504
2 0.734339 2.56071 2.96924
2 3.03391 11.6302 8.78459
2 10.9664 11.5037 2.7529
2 11.0775 0.869464 9.84661
2 0.234243 6.90101 1.70378
2 1.67773 2.42154 4.7064
2 11.5436 2.95219 11.8969
2 10.3424 11.9572 4.93427
2 9.1652 10.4895 8.28477
2 9.94302 1.69812 4.94586
2 1.7033 3.17426 12.0999
2 2.3916 0.298747 4.55284
1 11.4525 7.64752 7.71399
1 4.76746 10.7377 1.18432
1 2.6841 4.68286 8.27017
1 6.91718 1.95611 0.87311
1 1.91892 7.61816 7.80408
1 7.73804 11.4163 1.24645
1 12.2594 4.02503 7.82344
1 3.8426 0.993677 1.26798
1 0.709714 5.54239 2.7212
1 8.05753 1.32025 11.129
1 10.7547 8.2788 4.90551
1 4.8377 10.4522 11.2969
1 11.1789 4.65499 4.69134
1 5.19032 0.802023 9.9321
1 1.29821 8.45617 4.68714
1 8.1228 10.8868 11.6923
1 9.78246 10.9081 3.59906
1 2.99258 9.9211 9.31821
1 2.40306 2.6779 3.26353
1 10.7176 2.33223 10.597
1 2.66314 11.6491 3.62682
1 9.89453 9.65826 9.30428
1 9.263 2.42172 3.54263
1 2.32135 2.52501 10.694
1 12.304 1.87314 2.08873
1 11.6024 12.3046 8.97272
1 12.5942 11.4445 2.38486
1 1.90552 0.287338 8.65657
1 11.8384 8.20024 1.22291
1 1.27807 1.27158 5.7552
1 0.31599 3.16619 12.9753
1 10.9098 0.450471 5.88971
96
 Atoms. Timestep: 8000
2 1.29672 9.04548 5.97574
2 5.21809 0.334682 9.55409
2 8.81623 3.33379 5.37598
2 9.78215 11.8638 10.5053
2 12.5702 5.49712 8.43782
2 7.94558 12.4695 1.39193
2 0.69352 10.1306 9.78096
2 3.86502 0.637391 0.803746
2 8.79267 7.34352 7.48849
2 3.1998 10.3508 13.404
2 1.39035 5.31656 6.86698
2 8.93761 1.01538 12.6206
2 1.01116 9.64514 7.84879
2 7.49519 10.0636 13.0023
2 10.4799 4.70654 6.80966
2 7.53729 -0.0672038 10.4199
2 9.02517 5.74968 5.05753
2 6.02105 10.3426 10.7912
2 2.27033 6.51748 5.22214
2 2.66912 0.938654 11.0756
2 1.32505 7.48783 8.93558
2 6.1881 1.87475 1.11587
2 9.73848 6.06971 8.7923
2 5.59236 10.9969 1.55716
2 9.64785 9.11676 9.26685
2 3.31744 10.8894 2.64818
2 2.44753 5.66269 9.83488
2 9.09264 2.44637 2.10142
2 2.91297 9.93165 8.81694
2 8.09818 10.8181 2.82349
2 10.6455 3.98315 9.37102
2 3.73413 2.80738 2.70676
2 2.10717 3.64706 4.57843
2 10.0605 1.54768 10.5986
2 9.15969 9.02832 4.53601
2 5.03451 10.9909 9.03415
2 10.8895 3.20172 4.02381
2 3.70447 2.75264 9.84424
2 2.49047 9.42608 3.79326
2 7.97182 9.89564 10.1311
2 1.15418 10.0314 0.800076
2 3.71774 6.67826 0.339713
2 1.61628 1.41492 13.0668
2 11.0955 -0.135917 6.25839
2 12.4645 12.0162 1.58807
2 0.49103 11.5505 7.6799
2 1.82624 9.13639 11.221
2 12.166 10.7884 4.9872
2 11.771 1.44683 1.33458
2 10.7162 12.0707 8.7266
2 0.867372 10.8144 2.9519
2 0.897289 0.011372 10.8639
2 1.35645 1.83806 2.43603
2 2.31108 12.0418 9.20407
2 11.0628 10.087 3.01355
2 11.1987 1.69528 8.30718
2 2.4928 7.60573 0.0230808
2 2.40061 0.375348 3.90489
2 12.3762 2.27634 10.6444
2 9.77478 11.7851 4.12187
2 7.73039 11.1941 8.20093
2 11.3513 1.16007 3.57898
2 2.16386 2.94267 11.1364
2 1.74245 11.0235 5.32513
1 9.16954 7.50918 8.99801
1 3.98325 11.4274 1.15991
1 1.50262 5.85373 8.39218
1 7.79741 1.55795 0.780602
1 1.88524 8.89216 9.41257
1 7.40083 11.0372 1.19214
1 10.9584 5.03962 8.32985
1 4.56167 2.39759 1.36891
1 1.93203 5.00353 5.41828
1 8.95269 0.402874 11.1959
1 9.02484 7.37017 5.68133
1 6.24232 11.6681 9.68383
1 10.0626 4.41507 4.9585
1 3.81534 1.21186 9.70544
1 2.42541 8.12391 4.90497
1 7.14822 9.15537 11.4983
1 9.61664 10.3018 3.46116
1 3.64274 11.4606 8.68545
1 2.49611 2.31586 3.63066
1 11.0075 2.44899 9.58502
1 2.18859 11.3336 3.81282
1 9.44766 10.6653 9.1369
1 10.7709 2.30048 2.54661
1 3.30016 4.2389 10.7961
1 0.672607 0.847664 1.08841
1 11.8319 0.384149 7.69861
1 12.3336 10.1566 1.65375
1 0.834958 11.7985 9.46004
1 2.04174 9.01283 12.7566
1 0.583872 10.4286 6.36739
1 1.32992 1.65449 11.4554
1 11.2039 12.367 4.71518
96
 Atoms. Timestep: 10000
2 1.47654 9.8084 5.3731
2 5.34622 11.2029 10.618
2 0.669994 5.55029 4.15328
2 8.30241 6.28467 8.82531
2 0.86597 4.69388 8.3083
2 8.27757 0.437948 2.35723
2 1.20701 10.1108 11.3896
2 3.74429 3.33724 12.2277
2 9.71263 6.87371 6.38255
2 3.71789 10.0527 13.0602
2 2.53702 5.42039 6.72046
2 7.22938 2.27404 12.5088
2 12.1768 11.6513 7.42015
2 6.54707 6.39475 11.5008
2 11.8944 3.89087 6.0591
2 8.10087 1.12284 9.93522
2 11.3796 6.15252 4.79791
2 6.77711 8.8704 9.52043
2 2.36529 7.32295 4.47764
2 4.68539 12.4104 12.8342
2 3.16519 6.31816 9.61729
2 5.74492 1.84637 1.16798
2 10.9141 5.49179 8.27555
2 6.21819 10.7245 1.80101
2 9.22853 8.52037 8.82238
2 3.6001 11.5717 2.38326
2 2.95351 3.73832 9.27407
2 8.34252 2.65274 2.28802
2 3.10801 9.48607 10.1805
2 8.8373 10.5119 3.60487
2 11.3869 3.37343 8.7494
2 3.37164 3.2073 1.83219
2 2.74559 4.40086 4.43664
2 9.14626 2.70202 10.8096
2 10.8624 8.83888 4.55038
2 4.85926 10.3843 8.502
2 10.3872 4.1516 3.58288
2 4.72681 1.66652 10.7391
2 2.34376 10.342 3.56255
2 5.43109 7.33857 9.52473
2 0.868562 10.7819 0.195116
2 1.38269 8.2152 2.19555
2 11.8688 1.93085 -0.107558
2 10.3844 0.960332 7.08698
2 11.6465 0.310642 1.17031
2 11.7282 11.3404 9.35605
2 2.48703 8.30952 11.6469
2 11.7691 11.7078 5.03091
2 10.8232 2.57923 2.03897
2 9.65779 11.1482 8.66027
2 0.811718 12.1732 2.15316
2 0.706373 0.529275 11.0486
2 0.744628 2.6953 2.4222
2 2.15466 11.1797 9.41094
2 11.7286 10.1312 2.69096
2 10.6928 1.36908 9.10074
2 1.32195 8.74694 0.877314
2 2.4513 1.22316 3.46898
2 11.776 2.70874 10.6349
2 9.80073 11.5633 5.11532
2 7.68485 10.8694 9.65597
2 9.82759 1.31148 4.1885
2 1.96824 2.38924 11.6596
2 1.384 12.3841 4.84056
1 9.75309 6.78793 8.10661
1 4.3089 11.1589 0.863159
1 2.31446 5.53257 8.39953
1 7.66048 1.66779 1.02199
1 3.73774 7.80236 10.5908
1 7.64297 11.2295 2.66483
1 11.9402 4.50744 7.68988
1 4.40205 2.82742 0.626948
1 1.93012 5.9131 4.87651
1 7.54286 2.46988 10.7974
1 10.1499 7.15444 4.77718
1 6.29291 10.3673 9.32147
1 11.6208 4.45316 4.53533
1 5.50526 0.446285 11.467
1 1.77138 8.75572 3.94866
1 6.98708 7.20468 9.86856
1 10.7027 10.3924 4.04636
1 3.12667 10.5128 8.4423
1 2.27135 2.68502 2.83262
1 10.0981 2.44827 9.66212
1 1.91246 11.9824 3.40906
1 9.39626 10.0797 9.59089
1 9.47247 2.81763 3.41983
1 3.31061 2.72609 10.7243
1 12.1057 1.78826 1.63091
1 11.0086 12.5546 8.39206
1 12.2584 11.3692 1.39057
1 0.435669 11.4548 10.2862
1 1.93091 9.63557 12.7702
1 0.767218 11.295 6.14552
1 12.7932 2.04986 11.6314
1 10.3835 0.54234 5.56761
96
 Atoms. Timestep: 12000
2 12.0736 10.9931 4.79414
2 6.74418 1.1155 10.4835
2 12.3708 5.76168 4.05821
2 5.09622 4.8286 10.719
2 0.187426 4.20978 7.66454
2 7.0932 0.992206 2.44794
2 1.67942 9.6334 10.7108
2 4.07625 3.04071 12.3773
2 9.51714 8.14722 7.47445
2 3.40112 9.78637 12.2144
2 1.9027 5.64307 6.27986
2 7.8323 2.10639 12.3218
2 12.3183 10.886 6.79414
2 8.12687 6.47646 11.3431
2 11.4219 5.09047 5.89303
2 8.31101 11.8024 10.7107
2 9.39706 7.10501 4.99522
2 6.54916 7.18623 9.58396
2 2.49439 6.63529 4.18708
2 4.32173 11.793 11.1167
2 2.38163 5.98532 9.23903
2 6.29665 3.35896 1.24304
2 10.4323 5.77866 8.63158
2 7.01592 11.4807 4.75292
2 9.57953 8.91529 9.99106
2 3.89518 11.3354 1.86988
2 3.13858 3.80549 9.16989
2 8.3484 3.18771 2.17716
2 2.30895 11.235 8.42478
2 4.56608 0.0828823 3.80783
2 10.3709 3.24254 8.42188
2 3.47184 2.90901 2.22622
2 2.41611 3.69976 4.50262
2 9.61551 2.01684 10.7236
2 10.0608 9.55364 4.50518
2 4.39914 9.05114 8.78546
2 10.0627 4.52629 4.07495
2 4.83939 2.35347 10.1007
2 3.33202 9.66287 3.73371
2 5.30178 6.81551 11.299
2 0.629977 9.61709 0.407348
2 2.57588 8.91141 1.98959
2 0.761198 2.47822 0.347359
2 10.2558 12.4483 6.76347
2 12.4854 0.474733 1.08644
2 11.9257 10.6353 9.04452
2 3.02094 7.64976 11.6324
2 12.1653 1.05204 5.15131
2 11.0227 2.94752 2.17815
2 9.76807 10.4315 8.40373
2 1.81798 11.1629 2.31995
2 2.11488 11.894 0.280993
2 0.723443 2.68657 3.02655
2 4.66146 11.9297 8.78287
2 11.6781 10.5944 2.47868
2 10.3217 0.437378 8.76232
2 2.43019 8.4247 0.804091
2 2.34648 0.989265 2.91865
2 12.1427 2.08288 10.3903
2 10.3621 -0.0343247 4.01408
2 7.28941 9.57192 10.2159
2 9.55641 2.21102 4.70307
2 2.17533 3.24615 11.4128
2 2.47719 12.0779 4.73384
1 9.9719 7.7182 9.12789
1 3.83645 11.3307 12.7757
1 1.88948 4.78793 7.78622
1 7.64959 2.35979 1.18986
1 3.43022 6.47047 10.6382
1 6.41885 11.8975 3.28382
1 10.7623 4.65466 7.55924
1 4.4268 3.45652 1.09756
1 1.88195 5.29564 4.72073
1 8.1191 1.23347 11.0457
1 9.33704 8.60374 5.7815
1 6.10383 8.72453 9.30596
1 10.6734 6.06649 4.68644
1 5.1366 0.558977 10.2467
1 2.76999 8.27843 3.42318
1 6.62853 5.98981 10.6606
1 10.8872 10.838 3.96438
1 3.78207 10.6407 8.25127
1 2.35399 2.44384 3.3379
1 10.5162 1.93965 9.49747
1 3.06281 11.2401 3.53775
1 8.76425 10.1861 10.0511
1 9.59983 3.29681 3.26737
1 3.79783 3.63679 10.7356
1 12.3277 2.13111 1.69785
1 11.0939 11.3975 7.87302
1 0.641112 10.9622 1.27616
1 1.27082 10.7567 9.64948
1 2.01834 8.967 12.1084
1 1.01817 11.9967 5.81587
1 0.649558 2.9008 11.5187
1 10.4658 0.998118 5.37614
96
 Atoms. Timestep: 14000
2 10.8056 9.50749 3.5525
2 7.3515 1.28773 10.1892
2 11.8475 5.40398 4.44471
2 5.14189 4.41788 9.65947
2 0.490032 4.78136 8.44578
2 6.53606 11.9157 2.45129
2 1.69743 9.77383 10.2989
2 3.32699 3.14387 0.551617
2 10.9436 8.43951 5.81716
2 3.61911 10.6816 11.5412
2 2.03012 6.00765 6.72263
2 7.53752 1.7042 12.3001
2 12.0369 1.21429 6.88074
2 5.06668 4.87683 12.7086
2 10.2365 4.63744 6.51261
2 8.96713 11.554 10.4122
2 9.50534 6.44934 4.38497
2 6.2204 6.41422 10.842
2 0.570581 7.28599 3.87941
2 5.0813 11.6663 10.2084
2 2.19979 6.25864 9.17509
2 5.71039 2.78815 1.94962
2 10.0575 6.68544 8.13521
2 6.88918 11.1257 5.32159
2 8.86187 9.03915 8.47061
2 5.2831 0.402912 0.718772
2 3.05134 3.80483 8.23335
2 8.26091 1.65677 2.50877
2 3.24421 9.40955 8.40381
2 4.55644 11.7295 4.33256
2 10.4558 3.68551 9.07752
2 3.82839 3.57391 3.16273
2 2.00041 4.56236 4.93443
2 10.032 2.30794 11.0301
2 9.09237 8.43497 4.40754
2 5.46445 8.42395 8.97726
2 9.43331 3.30712 4.40492
2 5.12116 1.75333 9.19074
2 2.89021 9.65918 4.63579
2 3.07857 5.06682 11.4038
2 1.30366 10.9805 0.601253
2 2.65262 8.08441 2.2987
2 1.02538 3.26529 12.6363
2 10.124 11.8321 6.3456
2 1.08564 1.53153 2.29843
2 12.0602 10.6995 7.98485
2 2.18557 7.75441 11.7592
2 1.18608 2.6063 5.08047
2 10.6129 2.35043 2.17047
2 10.2082 10.7999 8.78975
2 2.79356 11.4628 2.8815
2 3.07853 1.32785 12.4484
2 1.58348 3.41565 3.01802
2 5.86195 11.1279 8.27113
2 9.56491 10.754 2.3946
2 11.0235 1.04349 9.02303
2 3.00847 9.34461 1.17317
2 3.10347 1.31745 4.45086
2 0.993194 3.48275 10.2788
2 8.96844 10.8058 4.67057
2 7.77375 8.60413 10.5833
2 10.7075 1.13711 3.96319
2 3.19252 3.15511 10.2957
2 1.29981 11.6084 5.42382
1 9.83524 8.382 7.48426
1 4.54427 11.9591 11.6197
1 2.07752 5.15531 8.165
1 6.62372 1.56398 1.44039
1 2.5422 6.57313 10.7455
1 6.04979 11.5738 4.10082
1 10.772 4.95179 7.99557
1 4.59524 3.82802 1.60398
1 1.71019 6.19367 5.04471
1 8.63185 1.29566 11.1865
1 10.6129 8.05676 4.23274
1 6.40459 7.92024 10.1487
1 10.2241 4.81883 4.76533
1 6.29781 0.471928 9.26478
1 2.48182 8.10888 4.17657
1 4.9478 5.18449 11.1289
1 10.2295 11.1034 3.74636
1 4.81741 10.0102 8.21414
1 2.62997 3.22451 4.41102
1 11.331 2.81916 9.98482
1 2.837 11.2396 4.42189
1 8.88678 10.0354 9.92886
1 9.37508 2.29654 3.12488
1 4.42308 3.18742 9.19715
1 0.41288 2.98766 1.84979
1 11.0605 11.8587 7.73812
1 1.94555 0.588816 1.257
1 1.59793 9.8883 8.67003
1 2.33685 9.5595 12.0237
1 11.9258 1.37313 5.28686
1 2.17813 3.38982 11.5813
1 8.46292 11.5654 5.92022
96
 Atoms. Timestep: 16000
2 9.62485 10.5402 3.03316
2 8.36963 0.907583 11.4555
2 11.2939 5.86768 5.26824
2 4.40905 6.48943 9.93766
2 11.3151 4.68204 7.90958
2 6.52771 1.49822 4.18366
2 2.72647 9.88388 9.40618
2 2.79961 4.44209 1.01203
2 8.97378 5.24202 6.05857
2 3.66301 8.24955 11.3769
2 0.828242 6.20614 6.86788
2 5.92132 1.33456 1.26502
2 11.8909 0.51415 6.59307
2 4.78672 5.48858 12.4355
2 8.98532 2.85344 8.68375
2 9.65125 10.3854 11.5431
2 9.75393 6.64374 3.8314
2 7.47265 6.34535 8.30995
2 11.0332 7.93402 3.10211
2 5.82293 0.295393 11.2644
2 12.036 6.84911 9.71046
2 5.66577 3.53492 1.70476
2 9.30266 5.31343 8.55067
2 7.82217 10.6073 5.5318
2 11.4975 8.36395 11.3724
2 4.58677 11.4598 1.35946
2 1.92878 5.86978 8.52553
2 7.87051 2.33529 1.91276
2 4.62769 9.8791 7.78273
2 4.94911 11.5348 3.70666
2 11.0767 3.27159 10.4064
2 3.46252 4.80927 2.86494
2 2.00467 4.8449 4.8324
2 10.6939 1.32866 12.0528
2 9.72323 9.41676 4.8227
2 7.21816 9.02568 8.38977
2 9.11476 4.55279 3.01764
2 8.03759 1.55837 8.9659
2 11.2778 6.76025 0.534926
2 1.2356 5.34299 11.3662
2 1.56174 10.2223 12.3901
2 12.2332 5.83054 3.45538
2 1.31292 2.99265 0.857611
2 10.4968 10.5554 7.17284
2 0.561459 0.605193 1.5274
2 1.48247 11.5795 7.66048
2 1.7437 7.86199 11.7484
2 1.6024 2.32895 4.6534
2 10.7821 2.92863 2.15459
2 10.8419 10.0294 9.14505
2 2.80584 11.6477 2.19019
2 3.09928 0.863801 12.4988
2 1.47057 3.20499 2.82694
2 6.46826 11.0467 9.78301
2 10.2553 0.232807 1.33504
2 11.5433 1.00456 9.26527
2 6.39631 7.54941 10.7577
2 3.3893 1.97183 3.78195
2 1.05288 2.78852 11.2703
2 10.2735 11.8441 4.72078
2 8.8677 8.25213 9.95963
2 11.5408 1.31152 3.54092
2 2.8816 4.41789 10.6305
2 2.02976 11.9492 4.5759
1 8.38916 5.78929 7.29122
1 4.85081 1.03506 12.3998
1 0.29482 6.06247 8.35784
1 6.52838 2.27044 2.47698
1 0.269896 6.73782 11.2962
1 6.30903 11.9776 5.01385
1 10.2628 3.9859 8.80562
1 4.56303 4.83686 1.47602
1 0.92043 6.07826 4.97846
1 9.37109 12.2009 12.4421
1 9.71147 8.79412 3.329
1 7.32742 7.75206 9.52834
1 9.86146 5.19315 4.46373
1 7.16559 0.335952 10.3859
1 11.5488 6.75472 2.13976
1 4.99665 7.04417 11.6526
1 10.1124 12.1495 3.07907
1 6.10538 10.2124 8.2313
1 2.68739 3.64659 3.8606
1 11.7434 1.80859 10.8574
1 3.43293 0.146794 3.45074
1 10.3413 9.26094 10.396
1 9.19897 3.22172 2.3266
1 3.30635 5.32698 9.43814
1 0.302712 2.06057 2.07957
1 11.6411 11.5484 8.28839
1 1.7321 11.7229 0.900645
1 2.92488 10.4355 7.83926
1 2.5092 9.23759 11.0661
1 0.693116 0.801884 4.85657
1 1.92957 4.10964 12.1865
1 9.63538 10.9081 5.90773
96
 Atoms. Timestep: 18000
2 9.63704 9.94293 3.59854
2 8.50572 0.74942 11.3987
2 11.3005 5.81163 4.40494
2 4.61999 6.09065 10.564
2 11.9006 4.21879 8.24819
2 6.07705 2.2713 3.47096
2 2.25454 9.85897 9.6129
2 3.42333 4.65515 12.65
2 8.12196 5.75154 6.04999
2 3.80101 8.50606 11.4657
2 0.88862 5.96566 6.57253
2 5.61602 1.97025 1.38294
2 12.028 10.7097 5.57317
2 4.81664 7.01337 12.5508
2 9.39293 2.26407 7.60819
2 9.69238 10.1324 10.249
2 8.52832 7.70655 4.80036
2 6.96573 7.10775 8.28932
2 11.2082 8.78704 2.29377
2 6.28859 11.7503 11.67
2 11.9695 5.87281 9.89965
2 5.58738 4.67171 2.1382
2 9.06985 4.56219 8.59417
2 6.00645 11.9946 6.36426
2 10.5726 7.55801 10.8544
2 5.18467 11.7492 2.09397
2 2.55358 4.7697 8.97621
2 7.84989 3.15169 3.04252
2 4.49203 11.4593 8.57693
2 5.2472 11.9786 4.35231
2 11.0725 2.46932 9.9695
2 3.40358 4.71741 2.39463
2 2.17724 4.26846 4.61451
2 11.0615 11.4589 11.5094
2 8.39782 10.7251 5.98392
2 6.04277 9.66113 8.24224
2 9.71174 4.44977 4.55707
2 6.93339 2.61453 11.3707
2 0.709658 7.0425 0.988548
2 12.1376 5.23768 12.1
2 1.79465 10.105 12.0739
2 1.33184 6.99893 3.73982
2 0.579946 3.85088 1.3831
2 10.5374 11.7116 6.84635
2 0.727322 0.702357 1.10237
2 1.84399 10.787 7.19999
2 1.67986 7.65744 11.4019
2 0.843259 1.04355 3.57957
2 10.5654 2.0483 3.174
2 10.9675 9.68767 8.39485
2 2.49833 11.9596 2.02183
2 3.53731 11.9618 12.0691
2 1.92965 2.75286 2.33755
2 7.16567 11.663 9.40027
2 9.53875 10.9849 1.07429
2 11.6834 11.7441 8.72692
2 6.79543 8.62992 10.4576
2 3.95817 1.94832 3.10779
2 1.3312 1.27098 11.4599
2 8.9429 1.5912 5.59526
2 8.94349 8.3178 8.63889
2 11.9399 10.7725 3.10752
2 2.40634 4.42449 10.9514
2 3.00435 10.961 4.24788
1 7.90682 5.7555 7.95073
1 5.07901 11.9736 12.4458
1 1.17083 5.51912 8.26413
1 6.40261 3.15209 2.29977
1 11.9515 6.50288 11.3426
1 6.03397 1.34022 5.06095
1 10.322 3.55269 8.55101
1 4.47842 5.5821 1.06045
1 1.1247 5.70553 4.8698
1 9.39262 10.8344 11.7263
1 8.95046 9.47667 4.93277
1 7.26195 8.62233 8.50567
1 9.49795 6.21469 4.84026
1 7.08814 1.03141 10.603
1 0.940308 7.99756 2.22258
1 5.2664 7.85632 11.1529
1 10.6365 10.2673 2.32715
1 6.09033 11.2761 8.13654
1 2.91368 3.5738 3.46422
1 11.5212 0.939691 10.4258
1 3.93581 11.8573 3.03506
1 10.2125 8.94271 9.58313
1 9.11692 2.76907 4.05765
1 3.72203 4.99154 10.2039
1 11.8624 2.00499 2.19614
1 11.8294 10.7308 7.59655
1 1.99998 11.6196 12.5855
1 3.10429 10.6072 8.41882
1 2.4122 8.92302 11.2236
1 1.27442 11.169 4.31682
1 1.75349 4.28495 12.4889
1 8.86891 12.0746 6.82841
96
 Atoms. Timestep: 20000
2 9.16319 9.93958 3.31345
2 7.83281 11.4199 11.106
2 10.8635 6.53432 5.65154
2 6.27738 5.30428 10.8231
2 11.7884 4.88639 6.9379
2 6.53807 1.40213 3.64899
2 2.80409 10.1461 10.6354
2 3.31468 3.68152 12.0334
2 8.24113 6.19026 6.83341
2 3.79429 7.99917 11.9793
2 1.40643 7.00713 6.41974
2 6.09518 1.39258 1.08396
2 11.6243 11.4498 6.40312
2 4.15215 5.84319 12.361
2 10.414 2.85254 6.34045
2 9.46707 10.3755 10.6492
2 8.71969 8.30554 5.19129
2 7.99619 6.482 8.93164
2 11.6585 8.85154 1.84833
2 5.57514 11.4366 10.8596
2 1.13499 6.41032 9.58168
2 4.67698 3.69129 1.91253
2 9.52559 4.08504 7.6649
2 5.83606 10.6589 5.93414
2 10.7095 7.75306 11.0247
2 4.11381 1.8639 2.77184
2 7.59886 3.97144 8.64734
2 7.23323 3.36096 2.47353
2 4.08738 10.5637 7.88977
2 4.70558 11.9049 4.21956
2 11.1136 3.23206 9.11899
2 3.19314 4.39719 3.19152
2 1.60748 5.36551 4.8922
2 10.4015 1.46716 10.8968
2 9.0611 11.3954 5.22204
2 6.34472 8.67349 8.13176
2 8.71024 5.50012 4.35844
2 6.47558 2.17343 9.86868
2 1.37895 6.43912 12.479
2 3.68116 5.3499 10.3886
2 2.07924 10.5513 1.14216
2 1.69869 7.09394 3.46894
2 2.0537 2.72113 10.572
2 9.87276 11.8288 7.33969
2 11.7321 1.72643 1.74042
2 1.20918 10.0993 8.14557
2 11.0428 5.13573 10.4721
2 11.2434 1.61395 4.47579
2 9.78444 3.23341 3.14038
2 10.8689 10.1527 9.2284
2 1.94372 11.9566 2.62826
2 2.91458 1.31627 0.678815
2 1.29369 3.38145 3.29802
2 6.85089 10.7705 8.7677
2 10.6202 10.8992 1.00687
2 11.9943 1.09806 8.85287
2 6.36534 7.62179 10.5428
2 3.32957 2.33727 4.67469
2 0.897956 1.48045 11.6965
2 8.17686 2.65981 5.2461
2 8.77784 8.35998 9.04127
2 11.566 10.6136 3.58372
2 4.96905 3.49953 9.98488
2 2.3447 11.2134 4.72288
1 8.51702 5.16907 8.1429
1 4.71253 0.749108 12.2191
1 1.29335 6.02144 7.99108
1 5.99046 2.31833 2.38325
1 11.8048 6.31769 11.1325
1 6.27881 11.4942 4.50665
1 11.1923 3.6265 7.59708
1 3.29727 4.34619 1.46375
1 0.97705 6.96575 5.00065
1 9.55498 11.6407 11.8998
1 8.32016 9.72864 4.74107
1 7.1857 7.81598 9.15451
1 9.09726 6.61594 5.5794
1 6.80322 11.873 9.96199
1 1.21668 7.60284 1.8578
1 4.91747 6.57053 11.1287
1 10.4694 9.89887 2.29052
1 5.73725 10.0075 7.57025
1 2.485 3.63896 4.60052
1 0.5991 2.27816 10.2541
1 3.08196 0.941716 3.71981
1 9.90894 8.95648 10.2708
1 8.36963 3.96885 3.82859
1 6.57925 3.80463 9.9938
1 11.2562 2.56261 3.11453
1 11.3309 11.2768 8.07206
1 1.45542 0.847448 1.01895
1 2.86011 10.3139 8.77107
1 3.0259 9.43522 12.0837
1 0.654931 11.3762 4.79039
1 3.41331 3.57933 10.5252
1 9.19504 1.48677 6.12693
96
 Atoms. Timestep: 22000
2 8.72042 10.3779 2.96744
2 9.10315 0.584847 10.4321
2 10.4167 6.52238 5.27325
2 5.55108 4.71123 11.1454
2 11.0988 4.32428 8.19987
2 6.34669 1.21599 4.29787
2 3.95854 9.7141 8.92931
2 3.96837 3.83297 12.6611
2 8.46319 6.20605 6.80488
2 4.2013 7.64294 10.8885
2 1.1937 6.0881 6.70154
2 6.53964 2.03278 1.93065
2 12.0086 11.2415 5.90247
2 5.15844 5.82451 0.837472
2 9.19723 2.08281 8.10381
2 10.4319 9.96117 10.7961
2 8.81748 8.25676 4.79313
2 7.28297 7.0134 8.32352
2 11.3043 8.88827 2.08766
2 7.0354 1.20302 11.3755
2 0.747706 6.16575 9.79115
2 5.60174 4.07446 2.58928
2 8.75723 4.29779 9.21097
2 5.78163 10.4432 6.0772
2 10.76 7.45926 10.2045
2 4.23522 2.06192 3.16877
2 6.29421 4.62013 8.60224
2 7.21758 3.2503 4.08647
2 5.16888 11.3938 7.90165
2 4.29773 11.875 4.16268
2 11.1781 2.89612 9.78678
2 3.0987 4.40325 2.92253
2 1.04493 4.85149 4.72548
2 11.1256 1.262 11.7358
2 8.06038 11.3665 5.60493
2 6.73146 9.13319 7.80704
2 8.99127 5.10177 4.6026
2 6.46761 2.37288 9.50919
2 11.6393 6.36367 0.855912
2 1.53316 5.32024 11.4237
2 3.06512 9.72618 11.7281
2 0.860764 6.64965 3.65491
2 1.71083 2.49464 11.4659
2 10.1457 11.3331 7.63187
2 10.4417 2.68327 12.2233
2 1.87749 11.7348 8.15455
2 11.6814 4.40036 12.6912
2 11.4182 1.51506 2.92659
2 9.63116 3.06197 3.71644
2 11.5681 9.75896 8.58912
2 3.08091 11.9133 1.72573
2 4.79642 0.824067 12.1698
2 0.382153 4.27746 2.65727
2 7.07319 11.9013 8.81206
2 9.80549 11.0257 0.653294
2 11.8294 0.801574 9.08639
2 6.86589 7.34419 10.565
2 2.34477 2.37907 3.95382
2 1.99766 12.0813 11.0347
2 8.94815 2.08103 5.78139
2 8.74602 8.69759 9.00604
2 11.5986 11.1552 3.0563
2 3.871 3.40375 10.1392
2 1.4886 11.9998 3.95424
1 7.81548 5.52636 8.31795
1 6.27502 1.40925 0.496998
1 0.68197 5.39015 8.19656
1 5.90467 2.39422 3.46956
1 11.5774 6.09813 11.59
1 5.71545 11.1933 4.57715
1 9.75076 3.28327 8.95386
1 4.32456 4.72361 1.71898
1 0.571156 6.24321 5.29441
1 10.0561 11.4151 11.5236
1 8.33909 9.77771 4.40475
1 7.16717 8.30461 9.24745
1 8.69992 6.47926 5.20075
1 7.74126 1.17035 9.91173
1 12.1122 7.47184 2.07802
1 5.7155 6.40068 11.2462
1 10.2275 10.4133 1.97164
1 6.66444 10.7569 7.3748
1 1.67752 3.92645 3.63129
1 0.737389 1.52009 10.5856
1 2.98282 0.923678 3.30575
1 10.4413 8.91807 9.48808
1 8.54472 3.53654 4.80176
1 5.4556 3.42181 9.74153
1 10.7603 3.31429 2.01648
1 11.9054 11.1368 7.84981
1 3.35919 11.3529 12.3235
1 3.36933 11.1442 8.28473
1 3.32379 8.81952 10.3215
1 11.4991 12.1342 4.56582
1 2.5994 3.94127 11.4553
1 8.78258 0.702905 6.94788
96
 Atoms. Timestep: 24000
2 7.94047 10.2657 2.79367