96
 Atoms. Timestep: 0
2 0 7.95642 4.74695
2 4.63304 0 11.358
2 0 4.63304 4.74695
2 7.95642 0 11.358
2 0 4.63304 8.47514
2 7.95642 0 1.8641
2 0 7.95642 8.47514
2 4.63304 0 1.8641
2 10.7421 8.43088 6.61105
2 4.15858 10.7421 0
2 1.84736 4.15858 6.61105
2 8.43088 1.84736 0
2 1.84736 8.43088 6.61105
2 8.43088 10.7421 0
2 10.7421 4.15858 6.61105
2 4.15858 1.84736 0
2 10.5201 6.29473 5.04003
2 6.29473 10.5201 11.6511
2 2.06934 6.29473 5.04003
2 6.29473 2.06934 11.6511
2 2.06934 6.29473 8.18207
2 6.29473 2.06934 1.57102
2 10.5201 6.29473 8.18207
2 6.29473 10.5201 1.57102
2 10.1594 8.65935 9.20274
2 3.93011 10.1594 2.59169
2 2.43004 3.93011 9.20274
2 8.65935 2.43004 2.59169
2 2.43004 8.65935 9.20274
2 8.65935 10.1594 2.59169
2 10.1594 3.93011 9.20274
2 3.93011 2.43004 2.59169
2 2.43004 3.93011 4.01936
2 8.65935 2.43004 10.6304
2 10.1594 8.65935 4.01936
2 3.93011 10.1594 10.6304
2 10.1594 3.93011 4.01936
2 3.93011 2.43004 10.6304
2 2.43004 8.65935 4.01936
2 8.65935 10.1594 10.6304
2 0 10.703 0
2 1.88643 0 6.61105
2 0 1.88643 0
2 10.703 0 6.61105
2 0 0 1.872
2 0 0 8.48305
2 0 0 11.3501
2 0 0 4.73905
2 11.2706 2.31295 2.18973
2 10.2765 11.2706 8.80078
2 1.31887 10.2765 2.18973
2 2.31295 1.31887 8.80078
2 1.31887 2.31295 2.18973
2 2.31295 11.2706 8.80078
2 11.2706 10.2765 2.18973
2 10.2765 1.31887 8.80078
2 1.31887 10.2765 11.0324
2 2.31295 1.31887 4.42131
2 11.2706 2.31295 11.0324
2 10.2765 11.2706 4.42131
2 11.2706 10.2765 11.0324
2 10.2765 1.31887 4.42131
2 1.31887 2.31295 11.0324
2 2.31295 11.2706 4.42131
1 11.0086 7.83654 8.10972
1 4.75292 11.0086 1.49867
1 1.5809 4.75292 8.10972
1 7.83654 1.5809 1.49867
1 1.5809 7.83654 8.10972
1 7.83654 11.0086 1.49867
1 11.0086 4.75292 8.10972
1 4.75292 1.5809 1.49867
1 1.5809 4.75292 5.11238
1 7.83654 1.5809 11.7234
1 11.0086 7.83654 5.11238
1 4.75292 11.0086 11.7234
1 11.0086 4.75292 5.11238
1 4.75292 1.5809 11.7234
1 1.5809 7.83654 5.11238
1 7.83654 11.0086 11.7234
1 10.1088 10.1088 3.30552
1 2.48067 10.1088 9.91657
1 2.48067 2.48067 3.30552
1 10.1088 2.48067 9.91657
1 2.48067 10.1088 3.30552
1 10.1088 10.1088 9.91657
1 10.1088 2.48067 3.30552
1 2.48067 2.48067 9.91657
1 0 1.60471 1.57853
1 10.9848 0 8.18958
1 0 10.9848 1.57853
1 1.60471 0 8.18958
1 0 10.9848 11.6436
1 1.60471 0 5.03252
1 0 1.60471 11.6436
1 10.9848 0 5.03252
96
 Atoms. Timestep: 2000
2 0.699649 8.23098 4.87504
2 4.25443 12.6689 11.7224
2 0.0931833 4.5752 4.5162
2 7.39796 12.008 11.2098
2 12.2704 4.98554 8.29717
2 8.31466 12.5871 1.57926
2 12.8688 7.98991 8.44656
2 4.41795 0.105494 2.00297
2 11.6527 8.11477 6.50931
2 4.1678 10.2069 0.359391
2 1.17067 4.12057 6.40116
2 8.5686 0.936119 12.8272
2 2.47442 8.00616 6.7674
2 7.42518 10.5644 0.199688
2 10.6134 4.31805 5.91118
2 4.70537 1.75393 0.00454188
2 11.3069 6.34599 4.43589
2 4.62275 10.3743 11.1469
2 1.58588 6.46477 4.30655
2 5.86064 0.946759 10.9109
2 1.4025 6.14108 8.08787
2 7.0599 1.86842 0.923116
2 10.4354 6.36648 8.17661
2 6.11083 11.5426 2.01136
2 10.2781 8.82296 8.9123
2 3.14634 10.3907 2.87384
2 1.77824 3.83581 9.27853
2 9.61645 1.99893 1.38718
2 2.22517 8.73568 8.83171
2 8.53964 10.315 2.72166
2 11.2305 3.24887 8.98605
2 4.5502 2.38399 2.07968
2 3.06587 4.11334 4.09244
2 8.8784 1.88963 10.3248
2 10.6595 8.87696 4.06253
2 2.55436 10.2069 11.2925
2 10.7241 3.65238 3.13213
2 3.39687 2.1962 10.8369
2 3.02061 9.0169 4.70884
2 9.15869 9.74551 11.2443
2 0.0880634 10.7773 0.330936
2 2.13954 0.396351 6.43673
2 0.727671 1.99274 -0.291037
2 10.3173 12.7241 7.05218
2 0.684906 -0.144659 1.66687
2 -0.0677481 12.5914 7.85408
2 11.9899 0.13794 12.0691
2 12.4368 0.564593 4.98144
2 11.8492 1.8057 1.98513
2 10.6043 11.1283 8.95592
2 0.697217 10.5503 3.27591
2 1.13092 1.63799 8.655
2 2.16144 2.44929 2.14179
2 2.10054 11.3544 8.62597
2 11.4105 10.1971 2.15725
2 10.3285 1.38769 8.98739
2 0.625681 11.1413 10.8259
2 2.58201 1.60103 4.46154
2 11.0825 2.30563 11.5576
2 10.3323 11.7364 4.56073
2 11.5094 10.7762 11.1013
2 10.5013 1.18586 3.94779
2 0.598273 1.74354 10.9517
2 1.40748 11.7534 4.73093
1 11.3108 7.71796 8.02483
1 4.28618 11.0102 1.87287
1 0.823562 4.30471 8.08265
1 8.5412 1.20181 0.768075
1 1.39618 7.64906 8.16476
1 7.66818 11.1458 1.61734
1 10.572 4.75294 7.73552
1 5.49171 1.41716 1.29424
1 1.74635 5.09132 5.07687
1 7.42757 0.73421 11.3747
1 11.9136 7.8398 4.84672
1 3.63844 11.041 12.23
1 11.3055 4.70924 4.46436
1 4.55235 1.36281 11.8097
1 2.19093 7.82382 5.25968
1 7.96013 10.622 12.0993
1 10.1881 10.4068 3.68058
1 1.79686 10.0768 9.76251
1 3.32012 2.60143 3.31693
1 10.4017 2.47132 10.1547
1 2.06573 10.5373 4.09408
1 10.3148 9.97085 10.0453
1 10.5691 2.26034 2.79871
1 1.85702 2.2893 10.0667
1 0.692137 1.63154 1.65884
1 11.1092 0.0483473 8.35975
1 0.0600479 11.1506 1.86267
1 1.62628 0.104924 8.01391
1 12.311 11.6165 12.5301
1 1.46361 0.583987 4.79703
1 12.3177 1.62284 12.206
1 10.7926 0.209322 5.04424
96
 Atoms. Timestep: 4000
2 12.2969 7.83061 4.17532
2 4.58806 0.44544 11.1548
2 12.0407 3.9287 5.70421
2 8.23323 0.3111 11.5432
2 -0.509993 4.7118 9.04173
2 7.28111 0.100569 1.91654
2 12.7369 8.68502 7.57059
2 4.06084 0.0393641 1.60084
2 11.3033 8.15484 6.18855
2 4.79187 11.9894 13.0182
2 0.978849 4.79064 6.52259
2 8.33606 1.57364 13.1105
2 0.994158 7.65673 6.1405
2 7.91459 11.3671 13.4332
2 10.0314 4.87384 7.10788
2 4.03328 3.0035 12.9085
2 9.78698 5.74736 4.94998
2 6.88708 11.5067 11.2229
2 1.12973 5.69364 4.36254
2 6.52654 2.43309 11.0668
2 1.58397 6.75796 8.52055
2 6.20435 2.88775 0.849474
2 11.1485 6.60642 8.96786
2 5.75194 11.6923 1.61105
2 10.7141 9.32537 9.30531
2 3.2751 10.5257 1.78885
2 1.31697 3.70566 9.73829
2 8.11967 2.07703 2.80426
2 2.40188 9.37959 8.22824
2 8.65054 10.381 2.27504
2 10.831 3.65706 9.29025
2 3.82115 2.00484 2.55676
2 1.09325 2.4394 4.57354
2 9.63307 1.73982 10.2398
2 9.46324 8.21614 4.06213
2 4.1546 11.0561 10.3485
2 9.7304 3.28869 4.4233
2 3.61606 2.55442 10.6256
2 1.98918 8.38385 3.84149
2 9.44178 11.4439 10.5539
2 0.0021011 10.6964 0.959616
2 2.32071 0.172899 5.89898
2 12.5093 1.39894 0.358286
2 11.8952 12.1351 6.21621
2 11.9913 12.5965 1.77651
2 1.24493 12.2813 8.25601
2 -0.0415291 12.2821 12.3578
2 -0.377744 0.418843 3.6729
2 11.269 1.85403 2.57684
2 11.6868 11.7692 9.13486
2 0.530842 11.6835 4.02327
2 2.21767 1.35072 8.5106
2 1.21223 1.21997 2.15681
2 3.59736 12.0438 7.85881
2 11.1889 10.3517 3.04424
2 12.3382 1.07054 8.65982
2 12.1005 8.95909 0.700068
2 2.48452 -0.168549 3.65186
2 11.9078 1.36706 11.1429
2 10.2472 11.3448 4.62447
2 11.45 9.9068 11.8754
2 10.3341 0.651397 4.28841
2 1.23869 1.31418 11.4322
2 3.11129 10.8333 4.12736
1 11.2862 7.9806 7.88557
1 4.35479 11.4885 0.877882
1 1.11811 4.95844 8.25558
1 7.52861 1.93409 1.21213
1 1.30297 8.20197 7.66446
1 7.55016 11.4926 1.44212
1 10.8518 5.07044 8.46558
1 4.62522 2.6922 0.989864
1 0.781305 4.11616 5.16361
1 8.08997 2.06971 11.4827
1 10.4952 7.2752 4.99182
1 5.23242 12.0259 11.2518
1 10.3176 4.31226 5.50329
1 4.80671 2.07984 11.3449
1 0.790004 7.5338 4.43946
1 8.33374 11.542 11.6557
1 9.62664 10.3305 3.58464
1 3.32384 10.5765 8.47977
1 2.25264 1.42122 3.63463
1 11.2203 2.01866 9.53607
1 3.15245 9.57053 3.18447
1 11.1765 10.6463 10.0894
1 9.61555 1.77936 3.74696
1 2.04496 2.08473 9.86107
1 12.5294 1.13078 2.22702
1 12.6728 12.4855 8.10702
1 -0.206626 11.2011 2.6276
1 2.63342 0.172359 7.60766
1 12.3546 10.4705 13.1508
1 2.04882 11.7563 4.85622
1 -0.282143 1.00392 12.5466
1 11.5391 12.6577 4.80942
96
 Atoms. Timestep: 6000
2 12.8007 8.28023 4.72951
2 5.26562 11.866 11.2846
2 12.4593 4.61039 4.59257
2 7.96491 12.1741 11.3272
2 12.5829 4.62551 8.57101
2 8.25942 0.263418 1.22618
2 12.56 7.98748 8.99411
2 4.89958 12.5058 1.31147
2 10.7519 8.27615 6.58467
2 4.37925 10.2784 13.373
2 1.90662 4.46481 6.92866
2 7.50719 1.90289 12.9933
2 1.11405 7.62739 6.9607
2 9.6098 11.2055 13.1224
2 11.4551 3.88397 6.78089
2 5.33226 2.86345 0.778463
2 11.0785 6.34215 5.4415
2 7.20429 9.83457 12.3848
2 1.07028 6.25397 4.68373
2 6.04082 1.12262 11.6954
2 2.11902 6.22185 8.81975
2 6.21522 1.62192 2.02032
2 10.4834 6.01395 8.14871
2 4.27301 0.626287 13.1019
2 10.223 7.97281 9.60125
2 4.52413 10.0966 2.60956
2 1.97103 3.14523 8.9261
2 8.55688 3.18279 2.33019
2 2.65148 9.15044 8.64326
2 9.75757 11.0281 1.86814
2 10.6406 3.38757 9.45746
2 3.49561 1.86688 2.43995
2 1.80762 3.99503 4.04556
2 8.44834 2.05387 10.6795
2 10.0565 8.94061 4.12231
2 4.09014 9.5691 10.8272
2 10.1387 4.05888 3.98561
2 2.96319 1.36803 10.6308
2 2.72369 8.23586 4.96889
2 9.29711 10.1385 10.8564
2 1.6891 11.0297 10.7769
2 1.59896 -0.0415553 6.00454
2 0.0325179 2.2546 13.3763
2 10.4936 12.1995 6.52204
2 0.178257 1.28817 2.04509
2 12.0295 11.878 9.25838
2 12.3751 11.6856 12.3186
2 11.5051 -0.256249 4.14998
2 11.6406 3.08017 2.22761
2 10.0744 11.0039 8.91361
2 1.27854 0.00150556 3.71557
2 1.3681 0.261363 8.88116
2 1.64971 2.82619 1.85082
2 2.15559 11.1785 8.04662
2 11.2861 12.3425 1.44696
2 10.649 0.871456 8.65862
2 10.8017 0.36534 13.3709
2 2.92203 1.83571 4.4041
2 11.3965 0.960349 10.5999
2 9.66039 11.5578 4.71748
2 11.8134 9.91184 10.272
2 10.2572 1.82125 4.06567
2 0.779657 1.06957 11.0741
2 3.51491 11.5192 4.11031
1 11.0984 7.50919 8.19531
1 4.1573 11.024 1.35592
1 1.27254 4.57189 8.44755
1 7.75417 1.89206 1.46454
1 1.37453 7.90086 8.62004
1 9.54127 12.1865 0.969424
1 10.9695 4.39004 8.36818
1 4.53385 1.1809 1.27158
1 1.16016 4.75176 5.44086
1 7.59087 0.848863 11.7038
1 11.1856 8.11979 5.03611
1 5.41411 10.0133 12.0723
1 11.0741 4.62911 5.39587
1 4.36201 0.607895 11.1567
1 1.26066 7.73347 5.28547
1 8.43758 10.8476 11.8768
1 10.0876 10.3231 3.35477
1 2.86 10.4413 9.66247
1 2.74074 3.12731 3.08806
1 9.98104 1.63806 9.94653
1 3.76731 9.62283 4.19204
1 10.3864 9.72387 9.78666
1 10.1718 2.98315 2.95679
1 1.66562 1.71466 9.62128
1 0.0790951 2.74766 1.34467
1 10.7606 12.1763 8.19094
1 12.4809 -0.0366848 2.85609
1 1.11373 12.1786 7.43237
1 0.0209841 10.9689 10.8313
1 2.45908 0.0183751 4.75402
1 12.3325 0.848453 12.4067
1 10.3528 0.318799 5.1226
96
 Atoms. Timestep: 8000
2 0.0064217 8.83018 5.06273
2 4.83951 12.6176 11.3268
2 12.8716 4.55813 4.31965
2 8.4907 -0.0165789 11.4372
2 12.5004 3.7396 7.23457
2 7.42713 11.6633 1.63302
2 0.0165015 7.81886 8.57177
2 5.00838 0.374298 1.87961
2 11.2892 7.75302 6.98436
2 4.69957 11.4333 0.0769888
2 1.85679 4.80299 5.90145
2 8.36129 2.03392 13.3752
2 1.87271 8.72621 7.01019
2 8.20022 10.9386 13.2085
2 10.9736 4.54649 5.92335
2 3.07276 0.555945 0.999349
2 10.6493 6.5905 5.42791
2 6.30352 11.2486 12.2718
2 1.65927 6.98623 4.25017
2 6.66714 1.49897 11.4943
2 1.26382 5.87588 8.24232
2 6.15015 1.92849 0.835991
2 10.6638 5.72658 8.57145
2 4.51223 1.90009 12.7893
2 10.2102 8.19092 9.28499
2 5.03683 10.3682 2.27195
2 1.99396 3.38747 8.1959
2 9.07445 2.43303 2.69831
2 2.67506 8.6609 9.33569
2 8.89408 10.3714 2.69968
2 10.4646 3.3978 8.69205
2 3.38852 2.45494 1.71785
2 1.96059 4.66448 2.81754
2 9.34224 1.6877 10.6549
2 9.74447 9.53668 4.5031
2 3.81559 10.71 10.8639
2 10.3044 3.71693 3.82332
2 4.05378 1.73539 10.3845
2 2.48689 9.5067 4.25859
2 8.87525 10.0075 11.2471
2 1.49183 9.93397 10.9833
2 2.26942 12.4981 5.91111
2 0.123702 1.35591 13.0732
2 10.933 12.0358 7.31681
2 10.4587 0.327229 0.941632
2 12.0162 11.2665 9.96377
2 12.1658 11.7654 12.1542
2 11.3319 11.4058 4.77005
2 11.3702 1.28631 2.45669
2 10.0359 10.9018 9.85506
2 0.853432 12.5729 3.94985
2 1.76714 0.482888 8.48348
2 0.534903 1.55847 2.15128
2 2.16076 11.0163 8.70143
2 0.583175 9.92169 3.15404
2 11.3262 1.01749 9.61695
2 9.70772 12.2858 1.62707
2 2.41063 1.48344 3.97252
2 12.0478 3.1999 11.336
2 8.89669 12.0258 5.01946
2 11.7459 9.45915 11.1671
2 10.6919 1.23398 4.99065
2 1.99014 2.37309 10.9216
2 3.63422 11.7469 3.59015
1 10.9876 7.20735 8.46191
1 5.57434 11.7506 1.46352
1 0.915844 4.51215 7.30609
1 7.85762 2.35136 1.35665
1 1.80078 7.37233 8.20082
1 8.6452 10.8833 1.39733
1 11.0529 4.40362 7.53351
1 4.55054 1.67155 0.939029
1 1.2511 5.38713 4.1306
1 8.19148 1.52148 11.7825
1 11.0936 8.33327 5.29833
1 4.61942 11.3044 11.8271
1 11.0325 5.15838 4.42074
1 4.96551 1.22757 11.4829
1 1.46085 8.47777 5.18514
1 7.83262 11.232 11.77
1 7.9498 10.6354 4.08494
1 2.63688 10.1968 9.94938
1 1.76078 2.79244 2.85138
1 10.9817 2.79295 10.2335
1 3.69998 10.1936 3.06995
1 10.2523 9.25082 10.4191
1 10.462 2.0384 3.54855
1 2.40654 1.78265 9.22855
1 12.3427 0.877558 1.13781
1 10.872 12.2293 8.91986
1 -0.0711863 11.1719 3.94734
1 1.9837 12.1587 7.30582
1 -0.17701 10.5695 11.1219
1 2.38678 12.7607 4.4333
1 0.653272 2.35053 11.926
1 10.5655 12.4919 5.84797
96
 Atoms. Timestep: 10000
2 -0.26685 7.42378 3.07397
2 4.07441 -0.000326921 11.2635
2 12.3902 4.79791 4.66871
2 8.98765 1.96972 10.985
2 0.0294485 4.62226 7.56972
2 6.14655 11.8981 1.46465
2 0.627408 8.06752 7.14692
2 3.51401 12.6078 1.00396
2 11.4773 8.7596 7.08256
2 5.18792 11.5298 13.2907
2 1.74351 4.75965 6.35373
2 7.78994 1.60137 0.062307
2 1.92857 8.19955 5.1205
2 7.93761 10.696 13.4225
2 10.3176 5.02921 7.25758
2 3.73651 0.286518 2.96857
2 10.4312 6.07525 4.49952
2 6.06673 11.1296 11.1785
2 1.8076 6.18328 4.21521
2 6.22985 1.86694 11.6185
2 2.04486 6.58466 7.6694
2 5.44151 1.63593 1.51416
2 11.7158 6.53804 8.52484
2 3.54803 1.15329 13.1608
2 11.3994 9.28242 9.11799
2 4.70392 9.86652 1.89133
2 2.00047 3.8921 9.67819
2 8.18642 2.42398 2.6724
2 2.52414 8.98636 8.30487
2 10.6449 5.73405 1.95321
2 11.3794 3.65031 9.9206
2 2.79688 2.36411 1.61159
2 1.53687 3.51978 3.98855
2 10.089 3.65804 11.9101
2 10.9263 8.66001 3.97038
2 3.76985 10.6222 10.6142
2 10.3008 3.2409 4.85042
2 3.80998 1.91318 10.2833
2 2.81866 8.21356 2.82284
2 9.02897 10.2297 10.4
2 0.973774 10.4103 9.97665
2 3.21454 0.446197 6.51717
2 12.5276 1.08691 0.182663
2 10.3325 0.0991735 6.90734
2 10.8138 0.33589 0.706763
2 12.0761 12.1038 9.30975
2 12.6711 12.5618 11.7061
2 2.18471 11.4071 6.5841
2 10.8011 1.63201 3.26995
2 10.0891 11.9054 9.21781
2 1.8919 12.3591 4.69983
2 1.67366 1.13342 8.92084
2 0.417439 1.90386 2.17844
2 2.43412 12.0197 8.50321
2 0.307793 9.7647 5.03491
2 10.9519 1.77001 9.21064
2 9.48955 12.2846 1.00717
2 2.33195 1.61831 3.76893
2 11.6258 1.62824 11.7236
2 10.5339 11.0254 5.30666
2 9.19158 9.62776 7.78285
2 9.11589 1.07301 5.07773
2 1.04309 1.97001 11.395
2 2.48489 10.1198 4.06427
1 12.3739 7.90172 8.08382
1 4.56755 11.4524 1.04991
1 1.7204 5.0408 8.22397
1 7.03682 1.5604 1.53134
1 2.21163 7.9006 7.10081
1 7.8306 11.328 1.34701
1 11.6516 4.87697 8.3293
1 3.79609 1.18359 1.46237
1 0.944694 4.86364 5.01631
1 7.72538 1.60744 12.2383
1 11.119 6.9329 3.2598
1 4.66234 11.5182 11.6585
1 10.8661 4.59973 5.57977
1 4.69166 1.56025 11.8262
1 1.36652 7.70684 3.28128
1 7.68783 10.8597 11.5771
1 11.5179 9.46359 5.36112
1 2.72106 10.6161 9.46346
1 1.684 2.66446 2.58449
1 10.5033 2.54294 10.7419
1 4.08279 9.12489 3.2883
1 9.98212 10.3929 9.05643
1 9.30568 2.25082 4.00422
1 2.14515 1.96638 10.1499
1 11.8203 1.58911 1.78563
1 10.9831 0.249229 8.67999
1 1.51297 10.7524 5.10662
1 1.9461 -0.117745 7.39295
1 0.0528111 11.5893 10.6263
1 3.0705 0.544033 4.73012
1 -0.103614 1.11012 12.2555
1 9.6739 12.6647 5.30143
96
 Atoms. Timestep: 12000
2 0.545215 7.20822 4.3312
2 4.75723 12.2877 11.5881
2 0.59217 3.21351 4.57032
2 8.07808 1.34664 9.37104
2 0.445929 5.03406 7.81958
2 8.12514 11.8701 1.25853
2 12.1215 8.07233 8.70752
2 2.95838 0.324972 1.20828
2 11.2286 9.03465 6.18551
2 3.08375 10.8567 -0.285932
2 4.0676 5.37796 4.56668
2 7.79016 1.33116 12.53
2 1.1473 8.44242 6.41429
2 8.61068 9.45854 12.5539
2 10.7932 4.44199 6.29059
2 4.89928 -0.056524 3.19527
2 11.2727 5.71861 4.62069
2 5.8032 10.3878 12.5127
2 2.7077 4.92858 6.61359
2 5.84673 2.27157 10.7133
2 1.97286 6.88079 8.81074
2 5.98528 1.28246 1.83846
2 10.1882 6.71849 8.02871
2 4.68001 1.84111 13.3029
2 8.85755 9.18043 8.10979
2 2.97177 10.3588 2.62552
2 2.84187 4.29316 9.58655
2 8.751 1.74311 1.63434
2 1.44507 9.85401 8.23473
2 11.5914 5.22097 2.43249
2 10.8299 4.76983 9.29416
2 3.01634 2.6381 2.12837
2 2.77946 3.07545 4.70596
2 9.18248 3.30514 10.9937
2 11.6321 8.23638 3.57965
2 3.13644 10.0733 10.6769
2 10.114 3.19077 4.5353
2 3.343 1.61161 10.8506
2 3.044 7.40157 3.9673
2 7.66925 9.26331 10.4665
2 0.798335 11.7942 10.3908
2 3.92601 -0.323313 6.28602
2 -0.0161404 2.44863 0.607483
2 9.76557 0.613226 6.71247
2 11.049 10.3957 3.06638
2 10.5347 -0.00133312 9.25262
2 12.1718 0.725357 11.8656
2 1.93969 11.9025 6.78559
2 10.828 2.81377 2.31208
2 8.43084 11.8054 8.34536
2 2.69351 11.7402 4.56777
2 3.18662 1.8273 8.43888
2 1.08625 3.852 2.09303
2 2.90776 11.8898 8.70965
2 0.561594 9.84736 4.92512
2 10.4753 2.13809 9.11509
2 10.7738 10.316 1.5857
2 2.73245 0.929478 3.69649
2 11.7441 3.01501 11.5798
2 10.3166 10.8955 5.05941
2 6.25761 9.84133 8.07978
2 9.45096 0.574253 3.85609
2 1.55294 2.88966 11.2732
2 3.15627 9.31808 4.80294
1 10.5318 8.45191 7.79742
1 2.93204 11.5232 1.40564
1 2.04034 5.38874 8.29717
1 7.4039 0.708553 0.767098
1 0.967093 8.29862 7.93606
1 9.17961 10.5305 0.941124
1 11.1265 5.40539 7.66139
1 4.1325 1.8006 1.55233
1 3.775 4.18184 5.58282
1 7.73348 2.21671 10.7512
1 11.9485 6.82501 3.52462
1 4.12594 10.7733 11.8686
1 11.8327 3.68287 5.0168
1 4.57851 1.12697 11.6687
1 1.76912 7.17022 5.17961
1 7.05031 9.41075 11.9766
1 11.6537 9.48761 4.6403
1 1.93076 10.8297 9.68073
1 2.09657 2.6046 3.38793
1 10.6346 3.65395 10.3133
1 3.8767 8.8614 3.30875
1 7.752 10.0685 8.81337
1 9.51892 2.25049 3.21709
1 2.5209 2.73607 10.0074
1 12.2058 3.70259 1.81463
1 9.46405 0.919585 8.15007
1 2.00952 10.4742 5.51966
1 3.18069 0.453449 7.64553
1 11.9129 12.6465 10.4172
1 3.82777 0.165506 4.38434
1 0.261913 2.12649 12.2327
1 10.2881 12.4561 5.59897
96
 Atoms. Timestep: 14000
2 12.4684 7.59721 3.91034
2 4.91742 0.561756 12.4351
2 12.0913 2.90969 4.22445
2 8.92621 0.937721 10.6049
2 0.561817 5.19856 8.50897
2 9.27728 10.8314 1.42265
2 0.0533544 8.34331 7.95654
2 2.79086 0.17573 1.1049
2 10.1818 8.16207 6.5658
2 4.03538 11.0252 12.8584
2 4.55838 2.82551 4.4677
2 9.27299 0.625477 12.7661
2 1.53882 8.55001 5.79084
2 7.56618 9.74367 -0.0468567
2 11.6722 4.86284 5.95465
2 3.09087 0.623218 3.45828
2 10.5296 5.47296 3.77753
2 6.58923 11.2606 11.3232
2 2.48372 4.17904 6.82823
2 7.23565 2.08899 12.6944
2 2.37838 6.41092 7.95684
2 4.63069 2.14612 3.0426
2 11.0294 7.12317 8.36004
2 4.19553 2.49675 0.0641469
2 10.3564 9.55037 8.77519
2 1.87855 10.0579 0.968892
2 3.44553 4.15861 8.96817
2 9.72908 1.00772 1.89871
2 1.78681 8.50856 9.03742
2 12.3515 5.81024 1.92401
2 11.2163 4.25312 9.05054
2 2.04765 2.27737 2.07954
2 2.2087 3.20334 4.0096
2 9.79112 3.00725 11.364
2 11.265 7.50167 1.32127
2 3.79608 10.9969 10.6565
2 9.69739 3.17066 3.59257
2 4.82949 2.63189 10.9598
2 1.03023 9.63675 2.91468
2 8.51201 9.39637 10.5702
2 1.32908 11.2211 10.4525
2 2.05879 1.07432 6.88627
2 0.536686 3.9797 12.7672
2 10.1668 12.4678 7.37052
2 7.37031 8.93298 4.68531
2 11.3373 -0.0700599 10.3792
2 0.547468 1.25236 11.6079
2 2.2528 11.2138 7.92099
2 10.5157 3.61554 0.793874
2 8.64767 11.4492 8.98662
2 2.04326 11.6726 5.08242
2 3.64065 1.35061 8.61241
2 0.568142 3.70296 1.868
2 1.01735 0.784368 9.16856
2 12.7043 11.082 6.62514
2 10.7328 1.34691 9.05134
2 9.55331 7.77398 2.45325
2 1.14522 1.43063 3.91649
2 12.3429 3.38526 11.0851
2 11.1084 0.627813 4.76959
2 7.90549 8.95899 7.79774
2 0.179298 0.429433 5.72401
2 2.53484 2.52827 11.1245
2 12.4629 8.46654 0.724169
1 11.2486 8.59027 7.97368
1 2.70341 11.3861 0.438852
1 2.17175 4.87416 8.30463
1 9.81076 12.4533 0.873335
1 1.62862 7.94314 7.44349
1 8.67679 9.12393 1.21383
1 11.7642 5.41587 7.68819
1 3.60673 1.57591 1.79862
1 3.09369 3.31312 5.32808
1 8.76043 1.92141 11.9886
1 11.0316 6.88425 2.90495
1 5.34414 11.6851 11.7322
1 10.7235 3.90215 4.47435
1 5.61456 2.29706 12.6007
1 0.754877 8.91073 4.3379
1 7.86129 10.0873 11.8005
1 8.59254 8.55271 6.03389
1 2.40818 9.96963 10.3268
1 0.976494 3.13975 3.21769
1 11.0484 2.92455 10.0579
1 0.477923 9.67825 1.41095
1 8.67076 9.85346 9.04975
1 9.70884 2.86951 2.00866
1 3.59025 2.58737 9.80579
1 12.2079 4.42045 0.712398
1 9.82129 12.6703 9.00593
1 1.41241 10.6963 6.48995
1 2.30249 0.165287 8.38347
1 0.234338 0.0636126 10.5935
1 2.32252 0.498664 5.05451
1 1.00176 2.7946 11.6217
1 11.4539 12.3458 6.38512
96
 Atoms. Timestep: 16000
2 1.31058 8.06947 3.04106
2 4.6459 12.2847 11.6229
2 12.1004 4.13202 2.63137
2 8.2107 0.0596743 9.43313
2 0.555647 4.93822 7.33282
2 10.7595 11.7678 0.979604
2 11.9432 8.26021 8.75073
2 3.97857 11.9662 2.63068
2 9.3322 6.79648 10.3072
2 4.29381 10.1535 0.948285
2 4.70096 4.77023 4.8898
2 8.78745 1.41767 12.1539
2 0.423891 7.70973 5.90699
2 8.9978 9.69412 13.264
2 11.1389 5.82234 5.23414
2 2.21314 0.754918 3.08305
2 11.2922 7.048 2.50149
2 5.58864 9.9171 12.0699
2 2.93398 5.14447 6.1112
2 6.22041 1.61372 10.9245
2 2.01935 6.77538 7.55565
2 5.15865 4.17463 6.23617
2 10.773 6.09528 8.16555
2 4.44433 2.18128 13.2057
2 9.40732 8.53615 8.58667
2 4.87011 10.054 4.06918
2 2.78739 4.2191 8.61617
2 9.47878 2.14212 1.85962
2 1.22804 9.4476 8.38591
2 12.5847 6.78634 0.608536
2 10.409 3.65292 7.05715
2 2.52652 2.56855 1.84313
2 2.66603 4.61186 2.83094
2 8.82997 2.32335 9.5391
2 6.53188 9.71523 7.33822
2 3.0212 9.90022 11.0601
2 9.95669 4.90188 3.05811
2 3.96654 2.04508 10.1907
2 3.08055 8.08492 4.62049
2 6.48833 9.9084 1.83074
2 0.848854 11.0802 10.4305
2 1.42754 1.35148 6.09142
2 11.6924 4.40467 11.6113
2 10.1281 -0.120199 5.64947
2 7.88454 7.96006 12.1868
2 10.503 11.9392 9.43618
2 12.0977 1.69409 11.0476
2 1.68836 11.5092 7.39935
2 10.2784 4.33977 0.467069
2 8.91241 10.4534 7.94105
2 2.36109 11.9351 5.11972
2 2.68868 1.93545 8.19627
2 0.564319 4.48002 0.818439
2 0.200081 0.771606 8.83634
2 0.227337 10.294 5.33644
2 9.72741 1.02895 7.70567
2 11.3832 9.19863 1.39396
2 0.698783 2.22794 3.26447
2 10.831 2.99188 9.44288
2 9.95562 9.75283 5.51816
2 10.5033 6.89711 12.9269
2 12.258 12.0487 4.33721
2 1.10191 2.9825 9.3535
2 5.41324 9.93271 6.2653
1 10.4498 7.22446 9.18501
1 5.03464 10.3178 2.47099
1 2.20629 5.17976 7.46253
1 9.64978 0.938067 0.598824
1 0.755057 7.98514 7.3756
1 10.3913 10.122 0.82851
1 11.3516 5.12991 6.66361
1 3.54629 1.16173 2.41558
1 3.20714 5.23456 4.28465
1 8.001 1.38113 10.7498
1 12.2584 7.92707 1.68031
1 4.00144 10.677 12.1745
1 11.2784 5.72593 3.60583
1 4.73442 1.60077 11.6086
1 1.42451 7.41573 4.59162
1 7.18114 9.36216 0.243176
1 9.39474 7.60876 11.7558
1 1.91785 10.182 9.90636
1 1.16646 3.47893 2.22896
1 9.7571 2.51403 8.10445
1 3.85747 9.39184 5.40091
1 9.16708 9.24186 6.99796
1 9.61011 3.60128 1.88321
1 2.74807 2.87362 9.4749
1 11.5494 5.29645 12.7458
1 9.35741 11.7908 8.33366
1 1.75116 10.4728 6.03154
1 1.44793 1.02848 7.88754
1 11.9951 12.3571 10.2815
1 1.23801 0.828733 4.47097
1 12.1695 3.20717 10.4238
1 11.0298 10.9313 5.04796
96
 Atoms. Timestep: 18000
2 0.147835 7.83207 3.10417
2 4.92217 11.5843 11.2718
2 11.7091 4.11936 3.88295
2 9.12852 -0.0475906 10.951
2 0.722479 4.96054 7.49275
2 8.87154 11.2568 1.8584
2 0.349367 7.99022 7.66093
2 2.7409 1.49559 1.3098
2 10.7309 7.39732 9.71098
2 3.42132 11.6475 0.307026
2 4.77766 6.14516 3.01149
2 8.01948 1.26615 13.2192
2 2.34029 7.75868 5.24491
2 7.49609 8.65717 1.85598
2 10.7288 4.23497 5.85035
2 0.529065 0.731291 2.76082
2 10.0038 6.2363 3.82609
2 5.73751 9.93259 0.209441
2 3.55019 4.84406 5.77537
2 6.70631 0.721818 10.1949
2 2.58934 6.57901 7.56941
2 4.91576 7.47998 2.26167
2 11.2857 6.0304 6.9411
2 4.17186 11.2878 9.21501
2 10.9921 9.3568 7.78366
2 4.06935 11.6584 2.21861
2 2.93823 4.16885 8.42454
2 9.42312 1.20108 1.6676
2 2.95981 8.62163 8.60064
2 10.8902 6.58308 1.51015
2 11.266 3.22241 8.64067
2 0.51996 2.99044 2.10522
2 2.47964 4.48826 3.71702
2 9.13983 2.88805 11.1641
2 8.67234 9.57908 7.47741
2 3.31083 9.72945 11.5697
2 9.95553 3.45634 3.20199
2 3.96412 1.39272 9.21458
2 2.78994 9.74313 3.69957
2 5.99942 1.25045 1.90339
2 1.41268 9.49649 9.66224
2 1.15241 1.17389 6.03927
2 0.71459 4.65841 13.0287
2 8.47655 0.921781 3.3456
2 9.48726 5.12323 10.9548
2 11.9261 11.2757 9.94248
2 1.04463 2.03328 12.8562
2 1.59044 9.34187 6.27869
2 10.9632 3.33046 0.404317
2 10.1554 11.2097 8.45618
2 0.199807 11.6855 4.40599
2 1.94634 1.9976 8.51138
2 0.505736 5.01937 2.12267
2 1.03261 11.9487 8.40049
2 11.4097 10.9732 5.88104
2 11.2797 1.39416 9.59524
2 9.96845 8.67085 2.29215
2 0.885302 2.39722 4.26065
2 11.7539 2.91202 11.4096
2 9.41403 11.5849 5.4394
2 11.478 6.25988 12.1742
2 11.257 1.2411 3.8904
2 2.12743 3.49598 10.4447
2 5.95704 10.029 2.73479
1 11.0536 7.65407 7.80895
1 4.26718 0.605921 1.51684
1 2.51596 4.97589 7.02973
1 7.93951 0.418228 1.77817
1 2.39064 8.11257 7.23809
1 8.75479 9.96702 2.11442
1 11.5073 4.37814 7.22086
1 1.18774 1.68322 1.48096
1 3.70792 5.23261 4.2563
1 7.94147 1.24115 11.4199
1 10.6417 7.43005 2.90942
1 4.19115 10.503 12.5403
1 10.2449 4.71252 4.24029
1 4.98428 0.159021 10.0126
1 1.38542 8.63169 4.01066
1 5.88479 8.82338 1.58903
1 10.7951 6.30238 10.83
1 3.09433 9.86533 9.94064
1 0.814307 3.92925 3.36359
1 10.7253 2.84205 10.3566
1 4.29744 10.607 3.37319
1 10.0792 10.5161 6.99666
1 10.3113 2.64059 1.70661
1 3.21158 2.62622 9.3899
1 11.7592 5.28632 0.7499
1 10.5548 12.2627 9.78047
1 0.31453 10.2726 5.33713
1 1.07503 0.967272 7.56571
1 0.222223 10.4738 9.00228
1 0.5661 0.864229 4.53802
1 1.06123 3.23722 11.9661
1 9.79896 0.421471 4.25071
96
 Atoms. Timestep: 20000
2 1.19203 7.18916 3.55439
2 6.49396 1.47659 9.76211
2 10.9552 4.35963 4.46541
2 7.55368 11.3805 9.76043
2 0.857606 5.36144 7.52627
2 10.0442 10.0614 3.00291
2 11.9915 9.33267 10.2413
2 3.47525 0.915264 1.60536
2 9.78823 7.60541 10.1973
2 5.37106 0.284776 11.9942
2 4.81319 3.3962 4.0324
2 7.77927 1.49856 12.4177
2 2.88188 6.9345 5.27109
2 9.17697 10.464 0.627186
2 10.0847 5.63443 6.67148
2 1.03146 0.809019 3.05835
2 10.7216 7.02783 4.21442
2 6.91311 10.1392 11.6396
2 3.39453 4.88387 6.52971
2 5.87897 2.54934 7.59516
2 2.43054 7.08579 7.95444
2 8.14671 8.16534 12.0728
2 11.1897 6.3231 9.02114
2 4.4623 12.1188 8.64967
2 9.75093 8.42098 8.28022
2 4.48592 10.6194 1.26419
2 2.33784 4.38263 9.2672
2 7.72946 2.57874 2.83404
2 3.52667 9.37254 7.41505
2 10.883 6.32811 2.36671
2 10.7063 3.50479 8.43579
2 1.5223 3.25503 2.80993
2 1.96877 4.39198 4.88755
2 8.07362 3.17677 10.2767
2 9.56959 7.78541 6.04073
2 4.61016 10.365 9.99764
2 8.87086 5.33454 4.34041
2 4.29954 2.54338 9.51541
2 3.86887 8.66774 3.39133
2 6.13 12.2004 1.50257
2 2.55739 10.8194 9.76905
2 12.3371 0.640792 6.27107
2 11.9556 3.65955 12.5522
2 8.23302 11.5123 2.58682
2 10.8294 9.04898 12.5181
2 9.51866 10.6133 11.335
2 1.01578 1.435 0.441526
2 1.50239 8.73293 5.8562
2 9.75157 3.98693 2.14433
2 9.5339 10.838 7.87041
2 12.2256 10.7408 4.25404
2 2.17441 2.17776 8.56511
2 11.8475 4.51142 2.62461
2 0.342568 0.510376 9.4885
2 10.8336 9.75336 6.00422
2 9.82829 1.046 9.23026
2 11.5402 8.64481 2.02637
2 11.7483 2.21666 4.89219
2 10.7189 2.34532 10.7174
2 8.97269 10.0625 5.36707
2 11.0951 6.1927 12.5478
2 10.4558 12.0032 4.388
2 1.68449 2.45358 10.9778
2 6.63165 9.1128 1.53442
1 11.1295 7.94562 9.32112
1 4.67654 0.0559442 0.915379
1 2.46263 5.36047 7.97301
1 7.62243 1.00053 1.71981
1 2.8651 8.11473 6.75445
1 11.0074 10.2739 1.37159
1 11.0935 5.04202 7.821
1 2.00852 1.69804 2.01176
1 3.77161 4.04202 5.12566
1 6.99629 2.27219 11.045
1 11.8187 7.47501 3.08147
1 5.96247 11.2556 10.5004
1 10.316 5.68889 5.10397
1 5.31454 1.622 8.69156
1 2.77243 7.24246 3.60077
1 7.79141 9.38268 0.331187
1 9.86346 7.57231 12.0482
1 3.81613 10.6485 8.70173
1 0.670238 3.73873 4.29811
1 9.76263 2.66026 9.51706
1 5.02682 9.27991 1.95945
1 9.38817 9.3754 6.73741
1 8.30518 4.15476 3.16167
1 2.62577 3.02433 9.87508
1 11.0395 4.89761 1.19407
1 9.0849 11.2313 9.73519
1 12.1192 9.19325 4.87767
1 0.7862 1.47473 7.98385
1 0.82913 11.0572 10.0925
1 12.0217 0.478705 4.43746
1 12.0424 2.27147 11.8797
1 9.40278 11.0238 4.09259
96
 Atoms. Timestep: 22000
2 1.42021 6.59211 3.82633
2 5.52947 2.46235 10.3119
2 0.53355 3.73945 3.4939
2 7.45479 11.3937 9.93049
2 12.0396 6.33176 8.86779
2 10.4091 10.6259 2.53247
2 11.8439 9.98832 9.43892
2 3.87181 11.6231 1.53743
2 10.4257 8.60351 10.9961
2 5.67337 10.6677 11.9201
2 3.45935 5.74491 4.6505
2 6.82915 2.27607 0.53957
2 2.75507 7.58496 5.4385
2 9.18581 9.15321 1.32906
2 10.2078 5.46165 7.02719
2 0.935641 0.624887 2.74882
2 10.7478 6.2883 4.26776
2 7.97911 9.21028 11.3619
2 2.63559 5.29688 7.47702
2 5.66367 2.28604 7.78907
2 2.22469 7.43816 7.62078
2 9.17577 7.10677 12.3711
2 10.1233 7.13994 9.00879
2 4.50921 0.574578 8.61897
2 9.99104 8.85512 7.7931
2 4.9702 9.52799 1.66702
2 1.87187 4.69375 9.7816
2 7.77446 3.3186 2.43669
2 3.89231 10.1229 7.26093
2 11.7172 5.28647 1.78222
2 10.4929 4.1176 9.40553
2 2.48024 2.43844 2.27873
2 2.79103 3.42482 5.32508
2 8.28128 3.40798 11.096
2 9.13464 7.93414 5.96791
2 5.8329 10.0736 9.32831
2 8.60648 5.06148 4.88151
2 3.28857 3.06483 9.18872
2 4.45174 7.5147 3.18053
2 5.53532 0.759175 1.59164
2 3.04133 11.0106 8.89015
2 11.4529 1.27679 5.87235
2 11.7865 3.24275 13.051
2 7.97298 0.452406 2.42936
2 11.1836 8.47021 0.726147
2 9.64383 10.7414 9.27851
2 1.58927 1.3224 12.8512
2 1.57517 9.11168 5.97516
2 9.54745 5.35245 1.85785
2 8.81412 11.4148 7.18331
2 0.78524 11.4245 4.84201
2 0.72751 2.1754 8.18216
2 10.1891 3.89162 11.5661
2 0.860402 11.5326 7.60598
2 11.0408 9.94492 6.0075
2 8.7777 1.62389 9.43749
2 11.4359 8.69188 3.81931
2 1.57675 1.55303 4.53761
2 10.8809 2.04158 10.839
2 8.91924 10.5908 5.16808
2 11.2415 5.56569 12.1094
2 10.3419 0.546399 3.82093
2 1.44725 2.2377 10.8966
2 6.49611 7.96014 0.725846
1 10.4319 8.92049 9.24542
1 5.29338 11.1367 0.948453
1 1.78357 6.0693 8.54936
1 6.89519 1.85116 2.25778
1 2.93483 8.71789 6.80313
1 10.861 9.08465 2.16722
1 10.5972 5.57025 8.78325
1 2.53148 0.577179 1.77212
1 3.32248 4.84493 5.93286
1 6.74229 2.94809 11.4835
1 12.0362 5.48046 3.30116
1 6.65487 10.2035 10.6821
1 9.66625 6.43921 5.61932
1 4.77143 2.27539 8.96902
1 3.07711 7.21277 3.92437
1 8.0692 8.40392 0.259834
1 10.9471 7.10653 11.9658
1 4.72146 10.7176 8.42197
1 1.88716 2.94337 3.72713
1 9.54258 2.91315 10.3768
1 5.52551 8.03329 2.1437
1 9.28114 9.6902 6.49259
1 8.60674 4.7363 3.07524
1 1.5779 3.01523 9.54068
1 10.6018 4.67621 0.803117
1 8.52977 12.0322 8.75319
1 0.8602 10.4945 6.17584
1 11.9041 1.05652 7.38489
1 1.34851 10.9142 9.1119
1 11.966 0.913479 4.50642