96
 Atoms. Timestep: 0
2 0 7.95642 4.74695
2 4.63304 0 11.358
2 0 4.63304 4.74695
2 7.95642 0 11.358
2 0 4.63304 8.47514
2 7.95642 0 1.8641
2 0 7.95642 8.47514
2 4.63304 0 1.8641
2 10.7421 8.43088 6.61105
2 4.15858 10.7421 0
2 1.84736 4.15858 6.61105
2 8.43088 1.84736 0
2 1.84736 8.43088 6.61105
2 8.43088 10.7421 0
2 10.7421 4.15858 6.61105
2 4.15858 1.84736 0
2 10.5201 6.29473 5.04003
2 6.29473 10.5201 11.6511
2 2.06934 6.29473 5.04003
2 6.29473 2.06934 11.6511
2 2.06934 6.29473 8.18207
2 6.29473 2.06934 1.57102
2 10.5201 6.29473 8.18207
2 6.29473 10.5201 1.57102
2 10.1594 8.65935 9.20274
2 3.93011 10.1594 2.59169
2 2.43004 3.93011 9.20274
2 8.65935 2.43004 2.59169
2 2.43004 8.65935 9.20274
2 8.65935 10.1594 2.59169
2 10.1594 3.93011 9.20274
2 3.93011 2.43004 2.59169
2 2.43004 3.93011 4.01936
2 8.65935 2.43004 10.6304
2 10.1594 8.65935 4.01936
2 3.93011 10.1594 10.6304
2 10.1594 3.93011 4.01936
2 3.93011 2.43004 10.6304
2 2.43004 8.65935 4.01936
2 8.65935 10.1594 10.6304
2 0 10.703 0
2 1.88643 0 6.61105
2 0 1.88643 0
2 10.703 0 6.61105
2 0 0 1.872
2 0 0 8.48305
2 0 0 11.3501
2 0 0 4.73905
2 11.2706 2.31295 2.18973
2 10.2765 11.2706 8.80078
2 1.31887 10.2765 2.18973
2 2.31295 1.31887 8.80078
2 1.31887 2.31295 2.18973
2 2.31295 11.2706 8.80078
2 11.2706 10.2765 2.18973
2 10.2765 1.31887 8.80078
2 1.31887 10.2765 11.0324
2 2.31295 1.31887 4.42131
2 11.2706 2.31295 11.0324
2 10.2765 11.2706 4.42131
2 11.2706 10.2765 11.0324
2 10.2765 1.31887 4.42131
2 1.31887 2.31295 11.0324
2 2.31295 11.2706 4.42131
1 11.0086 7.83654 8.10972
1 4.75292 11.0086 1.49867
1 1.5809 4.75292 8.10972
1 7.83654 1.5809 1.49867
1 1.5809 7.83654 8.10972
1 7.83654 11.0086 1.49867
1 11.0086 4.75292 8.10972
1 4.75292 1.5809 1.49867
1 1.5809 4.75292 5.11238
1 7.83654 1.5809 11.7234
1 11.0086 7.83654 5.11238
1 4.75292 11.0086 11.7234
1 11.0086 4.75292 5.11238
1 4.75292 1.5809 11.7234
1 1.5809 7.83654 5.11238
1 7.83654 11.0086 11.7234
1 10.1088 10.1088 3.30552
1 2.48067 10.1088 9.91657
1 2.48067 2.48067 3.30552
1 10.1088 2.48067 9.91657
1 2.48067 10.1088 3.30552
1 10.1088 10.1088 9.91657
1 10.1088 2.48067 3.30552
1 2.48067 2.48067 9.91657
1 0 1.60471 1.57853
1 10.9848 0 8.18958
1 0 10.9848 1.57853
1 1.60471 0 8.18958
1 0 10.9848 11.6436
1 1.60471 0 5.03252
1 0 1.60471 11.6436
1 10.9848 0 5.03252
96
 Atoms. Timestep: 2000
2 0.462846 8.16479 5.04305
2 4.06859 12.0226 11.7677
2 0.502856 5.20295 3.02779
2 8.3288 12.4877 11.5775
2 12.2836 3.90328 7.62798
2 8.17794 0.258492 2.22017
2 12.2227 7.51749 8.67521
2 4.22323 12.187 0.80416
2 11.5119 8.25543 6.46633
2 5.12043 10.3389 0.000277269
2 0.98536 4.46885 5.70403
2 3.86502 1.96206 12.5094
2 2.18139 8.0567 7.30643
2 8.2749 11.1198 0.385293
2 10.3668 3.71052 5.87529
2 5.4287 0.502744 12.8355
2 11.6801 7.02503 3.7569
2 6.59135 9.89049 12.3427
2 2.18367 5.89683 4.82384
2 5.92134 0.54609 10.7187
2 0.938338 6.43978 7.90153
2 6.3752 1.86134 1.31407
2 10.2156 6.06199 7.821
2 5.9876 10.7035 2.26122
2 10.9226 9.3325 8.78908
2 3.16414 10.3195 2.75654
2 1.65047 3.78289 8.71758
2 9.12818 2.53275 2.31451
2 1.25949 9.02211 10.1938
2 8.77961 11.4619 3.01284
2 10.2599 3.3 8.80703
2 4.00781 1.72342 2.11491
2 2.36039 3.01743 4.20846
2 8.56333 1.57295 9.75481
2 11.428 9.99593 4.15009
2 3.84215 9.63589 11.4549
2 11.3726 4.04435 3.88551
2 3.32507 1.54435 10.3877
2 2.21401 9.27577 4.40426
2 9.49624 10.3463 11.5834
2 12.502 11.0457 0.137435
2 1.51698 12.4585 7.08396
2 0.287362 2.53975 13.2939
2 10.7043 0.246091 6.71483
2 12.6134 0.437698 1.71423
2 12.4091 12.142 8.68001
2 0.204361 0.0501128 12.4317
2 -0.0382939 0.951416 5.5469
2 12.1055 2.42763 1.91109
2 9.98762 11.3547 9.13167
2 0.408891 11.0474 2.11374
2 1.95919 0.881074 9.04698
2 1.87528 1.4159 2.26779
2 2.11552 11.1241 9.59257
2 10.7421 11.75 2.68774
2 11.0358 1.10984 8.65475
2 1.674 11.2772 11.9836
2 2.29647 1.18219 4.99165
2 11.4205 1.82398 10.8913
2 10.7669 12.7021 4.4772
2 12.088 10.6161 11.0399
2 10.9993 1.98132 4.44345
2 1.30242 2.34418 11.2062
2 1.76901 11.3802 4.77816
1 10.7484 7.75269 7.86077
1 4.46385 10.8036 1.67023
1 0.750887 4.99342 7.65192
1 7.97451 1.54197 1.27752
1 0.896791 8.06162 8.85607
1 7.5977 11.2866 1.89439
1 10.7276 4.1683 7.64901
1 4.939 1.10882 0.920436
1 1.65288 4.48992 4.21723
1 7.51378 0.562785 10.3943
1 11.5383 8.5604 4.93505
1 4.94142 10.3196 12.1856
1 11.9763 5.26561 3.10832
1 4.42466 0.633167 11.4654
1 2.10193 7.81617 5.71707
1 8.16377 10.9858 12.3925
1 10.1455 11.0267 3.67993
1 2.31833 10.0731 10.9415
1 2.75068 1.59145 3.48527
1 10.1346 1.93121 9.64849
1 1.71698 10.5533 3.02875
1 10.4822 10.2026 10.3641
1 11.0073 2.57906 2.95528
1 2.04308 2.37809 9.8439
1 0.494124 1.71185 1.24021
1 10.8942 12.5936 8.27793
1 11.9964 11.8901 1.62027
1 1.19929 12.1514 8.66695
1 0.156595 11.4786 12.1862
1 1.48812 -0.2027 5.48561
1 -0.0581702 1.60925 11.8688
1 11.5043 0.989922 5.48604
96
 Atoms. Timestep: 4000
2 12.389 7.45165 4.93721
2 4.41429 12.5271 11.9891
2 12.515 4.21711 4.60159
2 7.97327 12.367 11.0047
2 12.2761 5.1552 7.43484
2 8.16542 12.5132 0.692237
2 12.1863 7.97952 6.87997
2 5.57324 12.6903 1.84559
2 9.93127 7.87346 6.05726
2 4.48684 10.6359 0.0989377
2 1.4812 5.72142 6.72068
2 5.07989 1.86207 0.385944
2 1.1931 8.56742 5.61627
2 8.51472 10.7644 12.2223
2 10.3278 3.73321 6.24909
2 5.64348 2.83043 3.27795
2 9.91522 5.84945 4.52723
2 6.36401 11.0765 10.7614
2 1.29023 6.20011 3.74627
2 6.4219 1.66808 11.9705
2 0.489451 7.00754 8.60852
2 6.96206 1.45638 2.31993
2 9.80224 5.79436 7.72001
2 7.01465 10.3067 1.34973
2 10.9281 8.64885 8.87821
2 4.21653 10.6112 3.01598
2 1.58873 3.95361 9.50244
2 9.7896 0.930984 2.05716
2 1.79364 9.63815 8.12374
2 9.36055 10.5768 1.62231
2 10.4796 3.25209 8.36514
2 3.95101 1.70087 2.89993
2 2.4644 3.39439 5.04705
2 8.57305 2.18153 10.5397
2 10.1049 8.29581 3.44489
2 3.53168 10.9666 10.3204
2 10.2017 3.3786 3.57115
2 3.33439 1.91477 11.1852
2 1.43995 9.06108 3.24232
2 9.46453 10.8539 9.68895
2 0.262405 11.0462 13.1444
2 1.45692 0.214224 7.38599
2 1.56728 1.72092 0.00198094
2 10.4704 12.5057 7.17055
2 0.523126 0.360358 1.09299
2 -0.00418605 0.544337 8.86907
2 -0.170612 0.278445 11.5584
2 12.6981 11.9933 5.39993
2 12.2018 2.25871 2.50128
2 11.4489 11.3101 8.87223
2 1.45674 10.7888 2.11691
2 2.53805 1.80522 9.34442
2 1.75948 2.35001 2.51265
2 1.57853 12.0376 9.30263
2 11.4393 11.0489 2.07046
2 10.3895 0.825571 9.68698
2 1.01793 10.5543 11.171
2 1.8322 0.964235 5.24702
2 11.5939 2.44994 11.4427
2 10.1652 10.8535 5.01113
2 11.7982 10.2383 11.2317
2 11.2424 0.849514 4.35459
2 1.37607 3.1125 11.6381
2 2.00273 11.3244 4.9682
1 10.2004 7.36114 7.69695
1 5.26783 10.9355 1.61772
1 0.812899 5.51567 8.45969
1 8.27052 0.916615 1.75589
1 0.902919 8.35194 7.39435
1 8.33584 10.8779 0.440482
1 10.7444 4.60201 7.55345
1 5.46831 1.51994 2.27833
1 1.50394 4.91533 5.01437
1 7.86688 1.03022 11.5414
1 10.3456 7.36007 4.66316
1 4.77942 11.0966 11.732
1 10.5816 4.33052 4.75566
1 4.52219 1.18921 12.4843
1 1.09223 7.80942 3.9462
1 8.00749 10.7572 10.5087
1 10.1946 9.96433 3.23727
1 1.91473 10.4201 9.8591
1 2.4397 1.9762 4.21504
1 10.1501 2.18916 10.1818
1 2.4218 10.5594 3.7307
1 10.9029 10.0777 9.8237
1 10.713 1.65325 3.08343
1 2.49433 3.01442 10.4238
1 0.638765 1.87193 1.67401
1 11.294 -0.0100259 8.61893
1 0.234329 11.6487 1.27695
1 1.63713 0.582946 8.76774
1 12.7587 11.4945 11.5702
1 1.38082 12.3393 6.06989
1 0.235719 1.80735 12.2403
1 10.7831 12.5258 5.49332
96
 Atoms. Timestep: 6000
2 0.121901 8.04032 5.10894
2 4.79362 1.06723 11.0107
2 12.4736 4.24894 5.63843
2 7.95892 12.6055 12.2284
2 -0.113218 4.07614 8.41263
2 8.6517 12.3452 1.67381
2 0.112086 7.70741 8.22381
2 4.31314 0.60175 1.0884
2 10.7875 8.34241 6.82777
2 4.46105 11.4774 12.7354
2 1.96478 3.85303 6.34863
2 5.63098 2.18095 13.1977
2 1.85421 8.30259 6.90575
2 7.25973 10.657 0.121528
2 10.5845 4.09087 7.19498
2 3.52896 2.70141 1.84287
2 10.7812 5.93836 5.20617
2 6.36597 11.7627 11.3477
2 1.80971 5.93705 5.05317
2 7.03759 2.46151 11.396
2 1.91629 6.33134 7.42609
2 6.53945 1.34195 1.88893
2 10.4811 6.76655 8.09252
2 5.80696 11.2545 1.91053
2 10.9507 8.65662 9.92748
2 3.67053 10.7146 1.93538
2 2.99009 4.47138 8.67128
2 9.48095 1.10525 2.62199
2 1.88478 9.43779 8.91324
2 8.72555 9.90776 2.21782
2 10.1012 3.72354 9.61706
2 1.93758 3.35159 3.85027
2 3.71584 7.12273 8.90177
2 9.5649 2.06069 11.6148
2 10.5199 8.5766 3.79094
2 3.61382 10.9587 10.5381
2 10.7157 2.88003 4.49724
2 4.8404 3.56201 10.5009
2 2.13266 8.68142 4.2204
2 8.221 9.94439 11.4105
2 0.0204397 10.8045 12.9161
2 3.2661 -0.054367 6.45428
2 0.147887 2.6507 12.428
2 9.08878 12.0971 6.72694
2 12.4578 12.6577 1.30698
2 1.40995 1.00088 7.32418
2 12.0283 0.471821 12.3341
2 7.91467 0.740509 4.61643
2 11.4846 1.51181 2.07283
2 9.4706 10.3369 9.06435
2 1.28294 10.5412 1.94117
2 3.5725 1.81149 8.17033
2 0.579657 2.64668 1.11776
2 2.97574 12.0322 8.95577
2 11.4596 10.3682 2.4607
2 10.6549 0.634609 9.40433
2 0.362525 11.2411 10.3262
2 3.57128 0.872256 3.40382
2 12.1728 2.66715 10.0152
2 9.58112 10.7901 4.47184
2 10.461 11.2423 11.089
2 10.5255 0.289724 4.57558
2 2.05683 3.05993 9.98774
2 2.23153 11.5097 4.0287
1 11.3254 8.10894 8.54979
1 4.64092 11.7349 1.09332
1 1.72757 4.63845 7.77132
1 8.25606 1.23502 1.34502
1 2.08696 7.69279 8.49518
1 7.57544 10.9978 1.9192
1 10.9227 4.79162 8.60012
1 4.91455 1.97518 1.45777
1 1.3388 4.41711 4.90905
1 8.20239 1.57675 11.9734
1 11.2928 7.66721 5.31872
1 4.8126 12.0614 11.1725
1 11.0082 4.05298 5.67103
1 5.44564 2.53316 11.5655
1 1.54418 7.62605 5.27487
1 7.31543 10.9585 12.2016
1 10.0137 9.94368 3.0431
1 1.95892 10.838 10.0777
1 2.0006 2.45008 2.12983
1 10.4921 1.936 10.0681
1 2.33965 10.0044 3.0639
1 9.74965 9.52337 10.8135
1 10.9358 1.59596 3.75548
1 3.48161 3.11353 9.21699
1 12.2914 1.29263 0.354374
1 10.0578 11.6775 8.39028
1 12.4477 10.9063 1.41657
1 2.72963 0.397417 7.88282
1 12.0438 11.8487 11.5032
1 3.25461 12.6155 4.73497
1 0.694031 2.48025 11.0355
1 9.09809 12.5095 5.18447
96
 Atoms. Timestep: 8000
2 0.0854722 7.88811 4.05267
2 4.95345 -0.289322 11.9768
2 12.8592 5.49229 5.11544
2 8.50901 12.7445 12.6428
2 11.7133 4.47734 7.78426
2 9.63781 12.1623 0.553366
2 0.217253 8.05817 8.87696
2 5.16472 1.50217 1.36248
2 11.9867 9.4139 6.36949
2 4.40072 11.0677 13.3751
2 0.330678 3.98055 6.51473
2 4.14223 2.38131 13.411
2 3.16462 6.01005 8.49208
2 7.97027 10.9853 -0.159334
2 10.5143 5.65785 6.00399
2 3.54163 2.19429 2.31327
2 10.9804 7.31211 4.27261
2 6.48242 10.6082 11.8741
2 1.46255 5.38929 3.51228
2 6.15904 1.32331 12.006
2 0.631384 5.61548 8.85421
2 6.19455 3.59066 0.927064
2 11.3568 7.37206 8.14176
2 6.4968 11.0321 1.77091
2 11.0789 9.63581 9.3258
2 3.80066 10.0628 1.62144
2 1.45442 2.92121 8.93431
2 9.11326 3.04886 1.65338
2 2.43146 8.39538 9.06258
2 9.20919 10.5097 2.25682
2 12.6039 0.431243 11.0496
2 2.48929 3.36142 4.82026
2 2.36114 7.28341 7.03534
2 10.1685 2.09277 10.4458
2 11.0387 9.34626 3.68423
2 3.81426 10.2863 11.2709
2 10.0603 4.58562 3.69988
2 3.77088 2.27906 10.7743
2 2.06179 8.07562 2.55839
2 9.15392 10.2454 11.013
2 0.93293 11.1885 13.1409
2 2.40464 12.4569 6.52323
2 11.646 1.21616 0.930654
2 10.7081 13.1734 6.23002
2 0.242714 0.275106 1.24306
2 0.38914 13.1917 7.25115
2 12.3542 12.6839 12.8466
2 8.52569 12.977 5.95912
2 11.3862 2.71888 2.34239
2 10.4412 12.653 9.72055
2 1.58041 10.8166 2.2553
2 2.1992 0.433774 9.14261
2 1.11011 2.34994 2.70992
2 2.64202 10.854 8.36538
2 11.7716 10.775 1.70712
2 11.9655 1.16803 8.44706
2 1.68658 11.5731 10.6726
2 2.42905 0.333975 3.98069
2 8.11762 2.66721 12.9485
2 9.4766 -0.79876 3.75075
2 11.8561 11.0085 11.4718
2 9.98031 1.822 4.42378
2 1.44556 1.51592 10.9643
2 1.60066 10.2817 4.7496
1 11.9058 8.91419 8.33636
1 4.80465 11.1561 1.04371
1 0.313326 4.02906 8.21697
1 7.91128 3.45515 0.471523
1 1.62892 7.0266 8.53081
1 8.07 10.8138 1.3424
1 10.6719 5.89201 7.62788
1 4.78868 2.88811 1.28107
1 1.44411 4.6338 4.93041
1 7.78248 1.18436 12.2669
1 11.8635 8.43887 4.729
1 5.11644 11.349 11.6242
1 11.0238 5.65564 4.50163
1 4.43917 1.3361 12.0577
1 0.849965 6.93166 2.90559
1 8.08865 11.1935 12.1618
1 10.6828 9.86029 2.04778
1 2.71051 10.0161 9.75163
1 2.22836 1.97037 3.77933
1 11.4347 0.887402 10.0503
1 2.66583 9.74106 2.77749
1 10.6289 10.7278 10.3074
1 9.75051 2.8161 3.17499
1 2.41585 1.88555 9.76423
1 -0.194598 1.9175 1.84601
1 11.9622 0.123616 7.03083
1 0.431652 11.461 1.37432
1 1.61759 12.3396 7.95997
1 0.348204 12.1122 11.6159
1 1.73336 11.8717 4.82934
1 10.8607 0.185176 -0.0353387
1 9.71417 0.448098 4.97293
96
 Atoms. Timestep: 10000
2 1.15251 7.77943 3.75645
2 5.29991 -0.00861237 10.7899
2 0.229874 4.70277 3.40037
2 7.97576 12.0238 12.4461
2 1.67969 6.44117 10.3227
2 9.47557 0.463837 12.8471
2 11.7948 7.78261 9.90476
2 2.16755 -0.127742 1.47381
2 10.3598 7.10808 11.1413
2 4.8413 11.1913 11.7468
2 2.84517 5.79076 7.60625
2 3.68589 0.593062 13.234
2 0.482221 9.0333 11.214
2 8.20066 9.50708 13.1848
2 10.7414 5.88853 5.8069
2 3.38189 2.59443 0.686883
2 11.5981 6.93324 3.73201
2 6.55307 10.9396 10.6387
2 3.28771 7.21111 5.22312
2 6.23749 1.50736 11.9979
2 10.707 1.53436 6.93816
2 4.68202 -0.127149 1.45105
2 9.58577 6.83273 7.91149
2 6.63193 10.6162 1.49802
2 10.1328 9.1023 9.16132
2 3.76214 11.1198 1.13425
2 2.36594 3.74478 9.23871
2 7.31536 -0.107455 2.94775
2 1.60977 8.99608 9.19818
2 10.8998 11.4949 -0.208695
2 -0.0346719 12.7277 11.1813
2 5.37045 7.87084 6.95495
2 1.46055 9.38143 5.57618
2 11.9386 0.817844 12.3856
2 11.6809 9.05344 2.59177
2 3.7408 10.8021 8.92592
2 10.7548 4.42118 4.19403
2 3.71451 2.09726 10.8923
2 3.08631 9.82767 3.92014
2 8.90733 10.0614 10.6099
2 2.83906 9.28281 13.3639
2 2.56571 0.809548 6.01139
2 11.4273 0.981435 0.784893
2 11.7778 12.5642 7.16429
2 0.118668 0.110442 1.84632
2 0.24354 0.895473 6.82206
2 1.14556 11.3078 12.7788
2 9.71398 2.67708 6.93094
2 10.1866 0.544042 2.88132
2 9.19444 12.0088 9.95372
2 9.80127 9.89333 1.18248
2 2.46983 1.79192 8.71179
2 12.6503 2.85631 1.99971
2 1.89246 12.1783 7.57663
2 12.5244 11.1531 0.942545
2 11.8675 1.22207 9.34166
2 1.41526 11.1528 10.3204
2 2.16228 2.26169 3.45363
2 6.69431 0.0135633 0.137195
2 9.18066 11.9138 4.08384
2 11.6373 10.4999 11.0297
2 8.61226 1.62093 4.85399
2 0.628164 2.4407 10.7328
2 2.76584 12.096 3.87602
1 10.0872 7.4334 9.40429
1 3.87256 10.6544 13.281
1 2.57639 5.39461 9.10357
1 6.03307 12.1487 1.60377
1 0.276843 7.70195 10.2257
1 7.88124 9.80257 1.08163
1 9.66322 5.49474 6.93895
1 3.40479 0.707126 1.00233
1 4.01369 6.57575 6.5098
1 7.74947 0.636509 12.6623
1 12.8385 7.85682 3.20734
1 4.85558 11.5629 10.1369
1 11.8649 5.50587 4.52314
1 4.51889 0.960272 11.9789
1 2.30795 8.38809 4.40245
1 7.83493 10.3538 11.6156
1 11.0683 10.6264 1.38081
1 2.17834 10.9423 8.58875
1 0.708207 3.42354 2.73352
1 12.7479 1.17167 10.8161
1 2.74619 10.9124 2.6101
1 10.3416 10.5957 10.0409
1 8.82198 0.267876 3.70423
1 2.12302 2.46897 10.0334
1 11.748 1.40205 2.3164
1 12.1271 0.900541 7.69523
1 0.913306 11.7774 0.749639
1 1.90649 0.823409 7.43198
1 0.239576 10.8168 11.2735
1 2.54254 0.614968 4.42782
1 10.9896 -0.0824864 13.2725
1 8.12517 2.15432 6.29038
96
 Atoms. Timestep: 12000
2 2.17353 7.1871 1.50272
2 4.97945 11.9431 12.4341
2 12.3692 2.10769 6.04403
2 8.33475 0.252602 12.2763
2 0.250001 6.15708 9.92381
2 10.2549 1.24717 13.2168
2 11.206 7.78151 8.95123
2 4.34157 4.83065 1.57824
2 8.92646 8.38326 6.99013
2 4.89151 9.95051 -0.518576
2 0.627121 4.15295 8.27322
2 4.63851 2.18985 13.1181
2 11.6592 8.653 11.1494
2 7.40559 11.4702 0.0868612
2 11.2329 4.36598 4.27594
2 1.99422 2.4129 4.00838
2 12.7697 5.94695 1.54049
2 6.54485 11.0287 11.536
2 4.28903 8.47886 1.97767
2 6.58403 1.07724 11.6529
2 11.1285 2.24442 8.52899
2 5.03412 2.53478 2.25991
2 10.5232 6.90316 6.77364
2 7.13518 -0.210017 2.5382
2 9.99721 9.40362 9.09008
2 12.9855 9.78692 3.13744
2 2.00788 2.59698 9.40667
2 7.87513 2.31754 2.58899
2 0.892152 9.28102 9.97292
2 11.6083 10.762 0.594399
2 -0.114302 10.7013 11.9116
2 11.9227 4.39916 6.94026
2 4.16498 6.31851 3.59109
2 12.3236 -0.379324 12.7092
2 12.6814 8.67015 0.846775
2 3.61241 9.5821 10.5423
2 12.2489 3.61382 2.21238
2 4.33505 0.891893 11.0138
2 2.18659 8.34993 3.73998
2 8.09509 11.402 10.3596
2 6.51694 10.3251 1.68327
2 2.89099 0.0809061 9.02872
2 11.1133 0.724162 1.66237
2 9.82551 1.1975 10.8157
2 0.900875 1.95767 2.04506
2 1.39187 0.45368 6.48835
2 10.1832 11.2894 12.4313
2 7.45527 5.53104 13.6258
2 10.3657 2.39629 3.09522
2 9.98321 12.3623 8.67335
2 9.30606 10.4238 2.23786
2 3.66749 3.107 10.5601
2 12.6357 1.44209 3.94201
2 2.24573 10.9689 8.32869
2 2.93412 0.236249 2.91228
2 12.2996 0.314393 9.66208
2 1.71686 11.4292 10.6043
2 3.4623 12.4059 5.71468
2 5.6801 0.815827 0.583469
2 9.25565 4.39655 1.55571
2 10.467 10.9783 10.4804
2 8.58016 3.08935 12.494
2 1.46603 0.718765 10.6359
2 2.5813 10.3229 4.52353
1 10.2201 8.28303 7.87708
1 5.24488 9.6593 1.147
1 1.12274 4.35643 9.77611
1 6.45249 1.36148 2.05533
1 12.4592 7.77866 10.0049
1 7.83091 11.5654 1.80196
1 10.9026 5.11982 5.90543
1 4.25727 3.29834 0.970295
1 12.3187 3.11104 7.59606
1 8.36576 1.75913 11.5722
1 0.757066 7.18441 0.767519
1 5.0357 10.4838 11.613
1 11.5667 5.08387 2.51433
1 5.28356 0.765355 12.592
1 3.33823 7.46145 2.48206
1 8.15413 11.3914 12.0633
1 11.3603 9.97127 1.81209
1 2.44103 10.1824 9.63782
1 0.918706 1.54282 4.93006
1 0.216955 12.4213 11.1022
1 1.09229 9.35755 4.27851
1 9.26949 10.8098 9.43388
1 9.18126 3.17011 2.8837
1 3.03942 1.19862 10.2762
1 12.2134 2.08108 2.57321
1 10.7339 0.989534 9.31928
1 2.68836 1.78221 2.24435
1 2.66352 12.3312 7.35858
1 11.2845 10.2248 11.5939
1 3.42996 11.9177 4.10104
1 11.013 12.5118 0.343239
1 8.58493 4.28218 0.0122833
96
 Atoms. Timestep: 14000
2 1.17404 7.22956 1.49659
2 3.54562 0.907337 10.8576
2 1.93498 3.29106 7.17892
2 7.77789 0.637408 11.1844
2 1.14897 6.90986 10.5924
2 8.86253 1.41289 2.38698
2 1.95093 7.5465 8.86251
2 4.0664 1.04931 3.17917
2 2.56251 9.32981 6.08992
2 5.54367 9.19386 12.489
2 0.789911 4.4743 8.25041
2 4.43854 3.9199 11.346
2 12.0593 8.44251 11.672
2 7.8165 10.918 1.14318
2 10.2508 5.8632 4.11548
2 2.16319 0.845291 6.07984
2 10.9664 6.23274 1.42879
2 7.01123 9.98641 10.9903
2 3.51284 7.58566 1.77424
2 5.74854 1.58508 10.5035
2 10.8129 2.4197 7.32648
2 2.74103 5.92047 12.1832
2 0.57274 8.08182 6.03013
2 5.72442 10.9814 3.11483
2 11.9645 9.6129 7.62938
2 10.2544 8.19571 4.3807
2 0.501602 4.73384 10.6067
2 6.71047 1.49747 2.34357
2 2.18168 10.1339 10.3694
2 10.4885 10.8768 2.91563
2 11.3109 10.9498 10.5573
2 11.7438 4.85444 5.6175
2 3.46805 7.0845 10.7116
2 9.77246 11.7072 12.6147
2 10.5249 9.01323 1.78166
2 4.83929 10.6863 9.79722
2 11.4188 3.51126 3.15885
2 2.64902 2.73434 11.8635
2 8.3356 8.27119 6.16172
2 9.34346 8.66614 7.402
2 6.18706 8.72655 2.70941
2 2.6258 2.41502 9.42708
2 11.3016 1.4447 2.79888
2 8.26667 1.41675 8.31561
2 2.23342 1.71824 3.8972
2 3.69484 1.01886 7.72038
2 9.25837 9.79038 11.0693
2 5.87151 5.42149 11.2167
2 8.86425 4.16455 1.61234
2 10.3635 11.2186 7.34433
2 8.37182 9.44965 2.71056
2 2.65246 4.39228 10.4378
2 11.9395 2.68916 5.44029
2 3.53691 10.0364 11.8819
2 3.61054 10.6659 4.86498
2 9.87158 1.26312 9.97492
2 1.18889 11.955 12.2473
2 5.15195 10.7254 6.68754
2 5.15863 1.53339 0.49056
2 7.25249 3.23044 12.6868
2 10.2033 9.07371 9.20935
2 7.63003 2.60951 10.8232
2 11.8099 2.52378 10.6721
2 5.39088 8.58776 5.37213
1 1.68923 8.42466 6.92776
1 4.90124 8.44066 1.56915
1 0.732814 5.74573 9.39212
1 5.38792 0.621068 1.814
1 1.98334 8.33149 10.5973
1 6.95411 10.2374 2.42439
1 11.4442 6.66627 5.02479
1 4.11205 5.57958 10.9362
1 12.0091 3.73098 6.66573
1 7.20685 1.47823 9.80109
1 11.6705 8.11969 1.14706
1 5.48325 10.3958 11.2159
1 10.471 4.97207 2.48616
1 4.42057 2.14216 11.5505
1 2.56506 6.62918 1.22226
1 8.37579 10.8416 11.8142
1 9.85374 9.56754 3.22575
1 2.58774 11.2365 11.4349
1 2.35929 1.82389 7.70009
1 11.1852 0.759994 11.383
1 6.71187 7.92275 5.52084
1 10.5073 9.78177 7.54999
1 7.8958 2.41754 1.72999
1 1.60673 3.25659 10.6665
1 0.719128 2.02307 3.9927
1 9.76059 0.901134 7.99314
1 3.35674 0.897653 4.80495
1 4.749 11.6466 8.27539
1 10.9432 9.29162 10.7795
1 4.27034 9.46592 5.91421
1 10.2178 0.615678 2.28097
1 7.25613 4.52804 11.5146
96
 Atoms. Timestep: 16000
2 2.82664 9.23171 0.386813
2 1.31816 7.91618 8.3464
2 3.87821 3.02833 7.13895
2 7.0708 12.1598 10.129
2 4.7729 7.88038 12.2859
2 8.28193 1.81583 12.5896
2 2.20275 9.18508 10.5472
2 4.4654 2.26985 2.34461
2 1.89987 9.49333 6.39354
2 6.19566 7.01239 11.0862
2 0.907541 4.07834 7.66825
2 4.28264 5.37125 12.1453
2 10.0365 8.34946 11.9485
2 7.80943 11.8439 1.13572
2 10.8257 5.59579 3.25702
2 3.59471 3.02194 5.45824
2 10.9791 5.88895 1.15935
2 6.46194 9.79434 0.400007
2 4.29806 6.68581 1.62067
2 7.31273 12.1526 7.23177
2 10.6714 2.64476 7.76151
2 2.09858 5.93573 12.1465
2 0.611269 7.11949 5.91225
2 6.42208 12.0037 2.68027
2 11.1867 9.60905 7.19509
2 10.7317 7.42403 4.17236
2 11.9677 4.99909 10.1423
2 6.6157 3.02289 1.14847
2 12.0185 9.29079 9.78475
2 10.6074 9.78337 3.62276
2 9.90595 11.6989 11.4871
2 11.2406 5.28867 6.22494
2 3.59466 6.6861 9.9775
2 11.5364 11.6316 1.00144
2 9.47051 7.91263 1.70986
2 6.36911 9.52803 10.5432
2 11.1957 3.09118 2.39889
2 1.97081 3.73249 12.0036
2 8.05475 7.58516 4.53642
2 9.13026 10.9609 8.22091
2 5.25805 6.76353 4.16436
2 4.50965 2.87017 9.75788
2 10.8762 1.24187 3.32871
2 9.43952 1.54683 9.24451
2 1.91271 2.15484 3.87967
2 5.83781 10.9546 8.27218
2 8.11053 10.5262 11.2981
2 5.43768 5.11187 9.30422
2 9.12224 3.83968 1.11309
2 11.2445 11.3727 8.3117
2 8.29802 9.91954 3.42953
2 11.5281 4.11493 0.474414
2 11.3588 3.46696 5.07374
2 6.33295 7.7299 1.37464
2 9.6498 10.6533 1.20078
2 11.6414 2.07591 10.3251
2 1.24412 11.629 11.9335
2 4.02444 9.1779 8.59588
2 5.9977 1.12593 0.66455
2 6.36902 4.02349 11.0871
2 9.40866 9.62794 10.0356
2 7.38016 2.53752 8.60195
2 3.05748 4.37928 2.15529
2 4.91678 8.73909 6.3093
1 0.682762 8.45294 6.84541
1 5.78466 6.73257 2.21948
1 1.25731 4.09948 9.41263
1 6.14557 1.83488 2.12466
1 2.95886 8.15412 9.35178
1 7.81369 11.288 2.67905
1 11.3312 6.1499 5.01102
1 4.82168 6.13458 10.6289
1 11.4347 3.77908 6.78503
1 8.03738 0.739607 8.81847
1 9.93457 7.03765 0.401233
1 6.50184 8.4768 12.0784
1 10.4513 4.57649 1.84023
1 3.49747 4.23049 0.62327
1 3.01263 7.45961 0.459805
1 7.28036 11.7994 11.9148
1 9.39809 8.16929 3.36865
1 2.27161 10.3173 11.8479
1 3.40534 2.87895 8.62407
1 11.6469 0.588798 11.6937
1 6.3611 8.06411 5.27892
1 10.6352 9.88543 8.86284
1 7.71698 3.58672 12.2338
1 0.676233 5.07205 11.9522
1 11.7205 2.38593 3.88081
1 11.0344 1.46298 8.68343
1 3.43608 3.00711 3.43754
1 5.30887 10.1741 9.56099
1 9.53507 9.95417 11.801
1 3.64246 9.6349 6.63557
1 10.718 11.545 2.69189
1 6.05427 3.72009 9.25292
96
 Atoms. Timestep: 18000
2 1.36087 6.9411 12.3925
2 2.72187 8.65025 7.31839
2 4.10925 0.918833 6.42543
2 8.9905 11.6221 10.9178
2 3.81745 7.42567 12.6041
2 8.68161 2.59585 1.14151
2 1.91167 7.65126 9.6439
2 0.657717 2.7702 1.23606
2 0.674456 9.78084 5.60598
2 6.22963 6.93167 11.268
2 2.50192 5.42319 8.84604
2 6.01798 3.81938 12.2661
2 1.99057 10.4588 2.06973
2 7.37637 11.4279 1.43282
2 10.6097 5.79261 4.12385
2 2.74089 0.913799 3.23407
2 9.85003 7.01585 1.66406
2 7.05873 7.31138 1.03717
2 2.41057 7.5409 2.81901
2 6.80843 10.6067 8.92709
2 10.4645 2.63766 8.32167
2 2.33729 9.64253 3.36568
2 2.03033 6.52015 5.65437
2 5.40828 1.00583 1.10431
2 0.561628 8.65938 7.48055
2 9.14896 7.46289 4.2106
2 1.35441 4.31555 10.6277
2 4.73183 2.1976 11.3403
2 11.4184 7.29102 9.27368
2 9.61672 9.9164 4.73814
2 1.19456 0.592084 12.0688
2 9.93479 5.76205 7.01639
2 4.36256 6.77711 9.65357
2 3.28536 3.03385 8.60839
2 8.13715 9.04208 2.62583
2 4.6342 9.31051 9.58804
2 10.947 3.57755 3.54019
2 1.91078 5.158 1.23005
2 6.75668 9.01894 5.10135
2 10.1478 7.96694 6.25352
2 4.60274 8.55225 4.40057
2 5.95559 2.14938 7.65305
2 10.8456 0.725525 5.22101
2 9.33988 11.4515 8.65307
2 1.26525 2.4813 3.74065
2 4.9409 11.8942 8.93063
2 10.2595 0.925578 0.860904
2 6.64814 4.44424 9.15228
2 8.82027 4.87582 1.92236
2 11.8783 4.58589 8.538
2 5.12169 0.901379 3.24119
2 11.2318 4.83812 1.02888
2 10.7662 3.5771 6.01508
2 5.67298 9.31256 1.42703
2 11.6394 11.6642 3.28373
2 0.798013 11.4297 9.41495
2 0.757904 9.3958 11.4167
2 5.46014 9.73438 7.03235
2 7.04604 0.729514 11.6864
2 6.52041 2.58954 9.86903
2 9.57383 9.19302 9.11513
2 8.72492 4.11733 7.55706
2 3.27981 2.6906 1.36587
2 5.1136 11.4027 5.02388
1 1.62164 8.16439 6.1516
1 3.0755 8.35661 3.99478
1 1.85696 3.86082 9.16087
1 5.75026 1.2683 10.4386
1 3.32126 7.84999 9.19123
1 5.48381 11.2242 2.02497
1 9.93196 6.41984 5.34618
1 6.17643 5.76656 9.92517
1 10.656 4.3828 7.72263
1 8.47583 10.3742 9.59657
1 8.58436 7.78722 1.5498
1 5.58634 7.72193 12.6328
1 10.6535 5.29995 2.53629
1 5.15004 2.36595 0.878926
1 2.63367 6.90949 1.43664
1 8.526 0.868754 12.3278
1 8.5111 8.89279 4.41727
1 0.710833 7.62893 10.7025
1 4.40252 1.69064 7.83074
1 1.2606 10.9895 10.8428
1 5.4804 9.97563 5.45578
1 10.6354 8.44001 8.10753
1 7.53867 4.29406 0.700931
1 1.30594 4.14904 12.2607
1 11.4283 2.56755 4.79798
1 10.9346 0.75032 9.07014
1 1.83783 2.02276 2.44022
1 5.28723 10.3682 8.64229
1 11.8755 11.7066 1.6135
1 3.73511 0.991553 4.48683
1 11.1103 10.7377 4.48414
1 7.17317 3.18114 8.31616
96
 Atoms. Timestep: 20000
2 11.8475 6.17689 11.1046
2 2.54067 8.23034 5.87561
2 3.7189 1.51662 6.1328
2 8.18348 9.07633 10.1368
2 6.8511 6.65017 5.10911
2 8.19192 2.20495 11.9733
2 2.37094 6.87692 8.55136
2 0.434927 2.87146 4.43923
2 1.15989 10.3028 5.16494
2 7.28173 6.61194 10.2202
2 1.94517 4.95892 9.38884
2 7.7095 3.63237 1.92562
2 12.1158 1.24466 2.97464
2 8.01064 10.5858 2.26407
2 8.6318 5.57998 3.11326
2 2.54862 2.65939 3.05295
2 10.9511 7.0339 1.75818
2 9.97176 8.76382 11.4571
2 2.49342 7.66259 2.67544
2 6.85942 10.7822 9.10175
2 10.0102 2.59407 8.47189
2 2.60612 9.97949 2.11447
2 11.9281 8.53842 3.70052
2 3.47295 10.0277 10.3781
2 10.4033 8.60853 6.19908
2 7.36421 4.05303 3.95512
2 3.04356 4.13083 11.2809
2 1.28362 3.20732 11.8078
2 10.1315 6.4682 8.21438
2 10.014 10.9187 5.02786
2 12.1616 10.4941 11.5728
2 8.38387 4.0715 5.77689
2 7.35842 9.13181 6.024
2 2.89706 3.38098 8.58578
2 11.1511 9.45166 2.0391
2 4.20264 8.84698 8.24539
2 10.6921 5.40413 3.9439
2 1.73905 5.04509 2.21389
2 5.84503 11.4692 4.85807
2 9.32295 6.1525 5.82643
2 4.71418 7.79836 4.19342
2 5.22517 3.80202 7.36575
2 1.02722 1.53972 6.63894
2 9.78662 11.0057 8.04248
2 2.41137 4.11379 4.53627
2 3.93193 1.31185 8.46401
2 10.4052 11.456 1.29972
2 5.92868 5.46269 8.63338
2 9.01835 4.95288 11.8814
2 1.05955 2.54013 9.21174
2 4.95815 10.0253 2.80838
2 10.6086 4.0305 2.46215
2 10.6968 4.08275 6.64995
2 6.5299 8.97367 3.49458
2 9.50091 8.6778 4.09359
2 1.64687 10.9458 9.40648
2 1.00146 8.19942 9.38613
2 5.13475 10.5697 7.5602
2 6.67479 1.41656 2.78132
2 5.96316 3.67695 12.2105
2 8.55019 8.90306 7.799
2 7.6874 3.48392 8.353
2 5.07515 3.83615 3.76871
2 3.69005 10.3485 4.8523
1 1.20056 8.84142 5.31646
1 3.56169 9.02742 3.22157
1 2.1104 3.26761 10.1692
1 4.58893 4.49348 11.5513
1 2.89028 8.17564 7.57885
1 6.33388 10.6012 3.25355
1 8.15706 5.46054 4.72131
1 6.07569 6.95432 9.27515
1 9.23971 3.71762 7.50626
1 8.43164 10.0508 8.84282
1 10.5277 8.13271 2.88653
1 8.64311 7.57002 10.7932
1 9.79245 5.60237 1.89846
1 6.50205 3.11403 2.89083
1 1.8396 6.47949 1.50144
1 8.80865 0.904428 1.71653
1 8.69721 9.66296 5.13769
1 11.6536 6.54929 9.44372
1 3.77474 2.73266 7.28186
1 1.94675 9.51665 10.2465
1 6.23633 8.22649 5.10847
1 9.51238 7.5719 7.1666
1 7.85938 3.71758 11.6543
1 1.0838 3.21286 2.11587
1 11.419 4.22115 5.04263
1 11.2848 1.06771 8.55769
1 3.51796 3.35387 3.99194
1 5.07541 10.402 9.10917
1 1.25305 10.8686 1.75394
1 4.58228 11.1056 6.19156
1 11.2944 1.21478 4.94674
1 6.15863 3.96717 8.89908
96
 Atoms. Timestep: 22000
2 2.10173 6.08893 11.5063
2 3.48771 8.0413 6.4384
2 3.1052 10.7659 7.82411
2 7.97159 11.7271 11.9111
2 1.71115 7.12682 2.18385
2 8.72484 2.37218 0.969266
2 2.70323 5.3027 6.35547
2 10.9558 2.81237 5.0605
2 2.41914 10.274 4.96706
2 8.67756 6.62216 9.07472
2 2.60783 4.09019 10.4214
2 7.75494 3.68951 3.18716
2 1.73458 2.59548 2.85891
2 8.07408 11.9031 2.81773
2 10.7671 7.55204 2.04073
2 2.90393 4.79348 3.21401
2 11.7264 6.24014 9.25826
2 10.5167 7.48164 11.3434
2 2.62813 8.98685 1.02096
2 6.6203 10.5435 9.41724
2 9.53384 2.12935 8.49598
2 2.25023 11.4746 1.60606
2 9.63485 9.99067 1.12612
2 3.67779 9.6276 9.68302
2 10.6921 9.63074 6.00807
2 6.69342 3.99834 5.31332
2 4.34131 3.82825 12.492
2 1.67576 2.60593 12.2933
2 12.0722 7.10084 6.78464
2 8.65879 7.85272 6.54781
2 1.63077 10.7516 10.5719
2 8.38331 5.13696 7.22528
2 7.29953 6.72936 5.49406
2 3.00088 1.61193 10.018
2 12.0118 9.1337 12.2101
2 6.23948 8.25821 8.99705
2 10.4021 5.7065 4.00624
2 4.05575 5.8637 0.862836
2 2.22094 8.00518 4.02674
2 8.72417 5.09581 5.1881
2 11.2552 9.51002 4.0675
2 4.68721 2.96011 7.92743
2 5.64018 6.10158 6.28236
2 9.3264 11.3446 9.36295
2 2.36794 2.76415 4.93283
2 5.17784 0.741176 9.01997
2 11.1673 11.6961 0.790404
2 6.12264 5.3573 8.79985
2 9.06643 5.13247 2.31979
2 11.7078 2.04147 9.74201
2 4.73787 10.8313 2.86308
2 11.811 4.50355 2.62626
2 9.96648 3.96371 6.74695
2 6.83689 9.87822 5.40678
2 6.35888 8.04882 6.81372
2 1.15346 11.414 8.6766
2 2.3169 6.73122 8.38584
2 4.86193 9.83276 7.15272
2 5.96474 1.33213 3.89329
2 6.8946 4.52235 12.3825
2 10.3101 7.49318 8.01157
2 7.2686 3.56067 8.83511
2 5.01444 3.85405 4.19661
2 3.3918 8.82582 3.94635
1 0.594288 10.8049 5.07822
1 3.19718 10.1859 2.6774
1 1.70408 2.3088 10.6762
1 5.27974 5.39066 12.0258
1 2.40597 6.98464 6.66862
1 6.67906 10.8459 3.70677
1 6.97818 5.30993 6.28112
1 7.09168 6.86518 9.08096
1 8.73907 3.41231 7.71065
1 7.7159 11.3774 10.1318
1 10.4296 8.55263 0.667492
1 10.3557 6.84216 9.80893
1 10.635 5.91611 2.30005
1 6.22985 2.99987 3.73635
1 2.86498 6.97259 0.766673
1 9.44255 11.9448 1.36573
1 7.46706 8.20242 5.70919
1 2.25166 5.85005 9.85319
1 3.77766 1.25413 8.53414
1 2.13102 10.1547 9.13992
1 0.694487 8.17557 3.36647
1 10.7057 8.1623 6.62422
1 8.12871 4.02788 1.71154
1 2.00984 3.91143 1.99523
1 10.3013 4.40426 5.02845
1 11.0296 0.990783 8.72971
1 3.22343 4.17637 4.8477
1 5.18554 9.5372 8.86467
1 1.36534 10.9338 12.1215
1 3.67868 9.89301 5.95489
1 0.936968 2.11426 4.33781