LAMMPS (2 Aug 2023 - Update 3)
units metal
boundary p p p
atom_style full
pair_style tersoff
neighbor 2.0 bin
neigh_modify delay 1




read_data SiO.data
Reading data file ...
  orthogonal box = (0 0 0) to (12.589463 12.589463 13.222096)
  1 by 1 by 1 MPI processor grid
WARNING: Atom style in data file atom-ID molecule-ID atom-type q x y z differs from currently defined atom style full (../read_data.cpp:621)
  reading atoms ...
  96 atoms
Finding 1-2 1-3 1-4 neighbors ...
  special bond factors lj:    0        0        0       
  special bond factors coul:  0        0        0       
     0 = max # of 1-2 neighbors
     0 = max # of 1-3 neighbors
     0 = max # of 1-4 neighbors
     1 = max # of special neighbors
  special bonds CPU = 0.000 seconds
  read_data CPU = 0.003 seconds
replicate 1 1 1
Replication is creating a 1x1x1 = 1 times larger system...
  orthogonal box = (0 0 0) to (12.589463 12.589463 13.222096)
  1 by 1 by 1 MPI processor grid
  96 atoms
Finding 1-2 1-3 1-4 neighbors ...
  special bond factors lj:    0        0        0       
  special bond factors coul:  0        0        0       
     0 = max # of 1-2 neighbors
     0 = max # of 1-3 neighbors
     0 = max # of 1-4 neighbors
     1 = max # of special neighbors
  special bonds CPU = 0.000 seconds
  replicate CPU = 0.001 seconds

pair_coeff * *  /root/Desktop/host/job1/SiO.tersoff Si O
Reading tersoff potential file /root/Desktop/host/job1/SiO.tersoff with DATE: 2010-08-16



group Si type 1
32 atoms in group Si
group O type 2
64 atoms in group O
#create_bonds many SiO SiO 1 0.5 10

dump dmp all xyz 2000 dump.lammpstrj



variable apot equal pe
# first number: number of steps to get current temp
# second number: calculate average n number of temp read above.
# third number: temp record (this must be larger than the one above )

variable atemp equal temp
fix temp_info all ave/time 10 200 2000 v_atemp file temperature.dat

#The cutoff used for pairwise computation (any pair style) and the
#associated neighbor list is the maximum cutoff that any compute
#can use. Atoms don't know any info about their neighbors
#further away than that.

# compute coord number
compute coor12 Si coord/atom cutoff 2.5 group O
compute coor11 Si coord/atom cutoff 2.5 group Si
compute coor22 O coord/atom cutoff 2.0 group O

compute sumcoor12 all reduce ave c_coor12
compute sumcoor11 all reduce ave c_coor11
compute sumcoor22 all reduce ave c_coor22


fix 12coord all ave/time  10 200 2000 c_sumcoor12 file Si-O_coord_number.dat
fix 11coord all ave/time  10 200 2000  c_sumcoor11 file Si-Si_coord_number.dat
fix 22coord all ave/time  10 200 2000  c_sumcoor22 file O-O_coord_number.dat




# unit cell information
variable avol equal vol
variable alx equal lx
variable aly equal ly
variable alz equal lz
fix cell_info all ave/time 10 200 2000 v_avol v_alx v_aly v_alz file cell_volume.dat


fix potential_info all ave/time 10 200 2000 v_apot file potential-energy.dat
thermo 1000



velocity all create 6000 12345 mom yes rot no dist gaussian
fix npt1 all npt temp 6000 5000 0.1 iso 0 0  1
timestep 0.001
#run 500
run 80000
Neighbor list info ...
  update: every = 1 steps, delay = 1 steps, check = yes
  max neighbors/atom: 2000, page size: 100000
  master list distance cutoff = 4.8
  ghost atom cutoff = 4.8
  binsize = 2.4, bins = 6 6 6
  4 neighbor lists, perpetual/occasional/extra = 1 3 0
  (1) pair tersoff, perpetual
      attributes: full, newton on
      pair build: full/bin
      stencil: full/bin/3d
      bin: standard
  (2) compute coord/atom, occasional, copy from (1)
      attributes: full, newton on
      pair build: copy
      stencil: none
      bin: none
  (3) compute coord/atom, occasional, copy from (1)
      attributes: full, newton on
      pair build: copy
      stencil: none
      bin: none
  (4) compute coord/atom, occasional, copy from (1)
      attributes: full, newton on
      pair build: copy
      stencil: none
      bin: none
Per MPI rank memory allocation (min/avg/max) = 6.021 | 6.021 | 6.021 Mbytes
   Step          Temp          E_pair         E_mol          TotEng         Press          Volume    
         0   6000          -638.06385      0             -564.38556      73800.118      2095.6304    
      1000   5924.0876     -567.44013      0             -494.69403     -11950.104      2242.2092    
      2000   6481.8355     -557.46656      0             -477.87148     -176.88309      2307.1086    
      3000   5648.0952     -551.67163      0             -482.31463     -40.498178      2338.4915    
      4000   6391.1638     -556.08324      0             -477.60158     -5307.007       2238.1086    
      5000   6576.6269     -557.63468      0             -476.87559      16961.212      2186.4866    
      6000   5951.3279     -552.51932      0             -479.43871     -6093.2124      2205.5361    
      7000   5427.6781     -549.44823      0             -482.7979       322.02911      2415.8048    
      8000   6415.3761     -534.20838      0             -455.42939      7844.1433      2365.3071    
      9000   6459.7669     -523.30669      0             -443.9826       10652.475      2188.6112    
     10000   6229.2995     -524.17237      0             -447.67836     -18940.061      2375.4998    
     11000   6745.8678     -526.5222       0             -443.68487      10369.929      2229.6174    
     12000   6043.4154     -530.27663      0             -456.06522     -13133.73       2245.2367    
     13000   5203.9948     -531.51325      0             -467.60968      7987.7848      1859.1251    
     14000   6304.7553     -536.48071      0             -459.06012      19837.235      1677.9351    
     15000   6150.0169     -530.02574      0             -454.50529      7815.8914      1572.9594    
     16000   5637.3124     -521.78025      0             -452.55566     -32581.97       1722.0348    
     17000   5602.6958     -520.02708      0             -451.22758     -25826.733      1533.9205    
     18000   6105.544      -536.35353      0             -461.3792      -31026.128      1589.2095    
     19000   5860.0376     -534.4736       0             -462.51402      36017.906      1521.3863    
     20000   5041.7745     -541.18214      0             -479.27059     -11312.114      1321.3362    
     21000   5827.3013     -539.10535      0             -467.54776      79348.411      1240.3293    
     22000   4908.6044     -526.51933      0             -466.24307     -36304.824      1505.6046    
     23000   6244.8166     -541.95467      0             -465.27011     -9056.633       1402.4037    
     24000   5559.3898     -542.77699      0             -474.50927     -53.268694      1383.2737    
     25000   5214.7333     -541.68179      0             -477.64636     -9746.8256      1467.2099    
     26000   5213.7028     -526.09661      0             -462.07383     -36867.539      1505.8311    
     27000   4953.7981     -541.88477      0             -481.05355     -64756.312      1361.1293    
     28000   5795.5448     -538.88531      0             -467.71768     -37633.012      1521.9753    
     29000   6221.67       -527.87885      0             -451.47853      21099.316      1550.997     
     30000   5092.5262     -542.68693      0             -480.15216     -5240.4398      1327.3136    
     31000   6388.3635     -545.64235      0             -467.19507      28861.56       1366.2358    
     32000   5346.2078     -550.86664      0             -485.21674     -5787.1457      1340.2051    
     33000   5771.8027     -530.87301      0             -459.99693      8726.2937      1468.2915    
     34000   5574.8768     -528.59493      0             -460.13704     -16352.282      1516.2308    
     35000   5196.972      -549.03229      0             -485.21496      1970.7451      1414.6685    
     36000   5625.7091     -538.07337      0             -468.99128      82063.634      1485.7521    
     37000   4640.5816     -542.48807      0             -485.50306     -3097.6615      1565.1856    
     38000   5710.2274     -536.55833      0             -466.43837     -18506.48       1484.3724    
     39000   6055.3458     -554.79196      0             -480.43405     -10621.497      1500.7968    
     40000   5529.3268     -550.13859      0             -482.24004     -17461.241      1669.6225    
     41000   5232.4503     -533.50156      0             -469.24857      55448.775      1787.7719    
     42000   5016.3025     -531.454        0             -469.85524     -14967.59       1709.4386    
     43000   5476.5795     -522.8784       0             -455.62758      2776.0847      1926.6187    
     44000   4852.6049     -530.7074       0             -471.1188       648.56303      1944.668     
     45000   5159.0113     -549.54806      0             -486.19688     -12655.132      1730.3337    
     46000   5161.0288     -540.37492      0             -476.99897     -32925.235      1777.5002    
     47000   5063.2384     -562.31787      0             -500.14276      15138.102      1568.6388    
     48000   4742.4345     -540.57612      0             -482.34039     -29156.276      1618.049     
     49000   5073.4539     -551.58598      0             -489.28542      26886.299      1564.2235    
     50000   6288.7216     -558.8871       0             -481.6634       22161.206      1613.3915    
     51000   5667.491      -549.45851      0             -479.86334     -25566.111      1523.1122    
     52000   5055.2841     -535.13779      0             -473.06035     -27859.4        1666.7556    
     53000   5622.9153     -548.31529      0             -479.2675       28854.53       1515.0917    
     54000   5374.626      -562.46999      0             -496.47112      24251.546      1513.3165    
     55000   5139.1113     -544.28849      0             -481.18167      23587.648      1501.5826    
     56000   5126.7789     -550.71134      0             -487.75596     -41753.484      1632.453     
     57000   4812.2185     -556.83725      0             -497.74459      35409.022      1458.4229    
     58000   5347.5842     -552.45317      0             -486.78637      9595.1573      1534.6566    
     59000   6317.4764     -563.76871      0             -486.19191     -9672.6119      1464.6304    
     60000   5030.1761     -561.23096      0             -499.46184     -33331.872      1543.2859    
     61000   5189.8502     -553.63997      0             -489.9101       15427.873      1518.7514    
     62000   4787.5166     -554.85032      0             -496.06098     -117.05176      1433.0318    
     63000   5618.3684     -557.69503      0             -488.70308      2339.3335      1475.952     
     64000   5358.5687     -555.0933       0             -489.29161     -20281.67       1564.2374    
     65000   5112.2721     -559.61084      0             -496.8336       5785.9818      1340.4381    
     66000   4701.366      -564.07333      0             -506.3419      -37266.598      1372.7466    
     67000   6022.5934     -548.87214      0             -474.91642     -6867.4123      1412.7333    
     68000   4973.808      -545.95014      0             -484.8732      -10897.55       1472.8255    
     69000   5282.2347     -560.35425      0             -495.48992      2693.3584      1362.3563    
     70000   5644.9635     -559.12928      0             -489.81074      23889.933      1663.0303    
     71000   4808.3608     -555.42807      0             -496.38278      13988.843      1490.0897    
     72000   5389.6751     -553.52357      0             -487.3399       13527.331      1510.3077    
     73000   5088.4579     -554.89547      0             -492.41067     -49452.359      1811.9503    
     74000   5212.3544     -553.96855      0             -489.96233      25316.315      1650.1908    
     75000   5021.5832     -549.62382      0             -487.96021      10796.16       1682.144     
     76000   5050.2338     -551.86886      0             -489.85344      60211.905      1545.8665    
     77000   4775.8846     -555.53979      0             -496.8933      -15963.439      1523.7846    
     78000   5676.2191     -549.07653      0             -479.37418     -9421.5136      1667.5027    
     79000   4395.4528     -548.42256      0             -494.44766     -34823.102      1709.4385    
     80000   4555.985      -557.63996      0             -501.69377      6514.7498      1569.3567    
Loop time of 6.88648 on 1 procs for 80000 steps with 96 atoms

Performance: 1003.706 ns/day, 0.024 hours/ns, 11616.970 timesteps/s, 1.115 Matom-step/s
99.0% CPU use with 1 MPI tasks x no OpenMP threads

MPI task timing breakdown:
Section |  min time  |  avg time  |  max time  |%varavg| %total
---------------------------------------------------------------
Pair    | 5.6727     | 5.6727     | 5.6727     |   0.0 | 82.37
Bond    | 0.0032974  | 0.0032974  | 0.0032974  |   0.0 |  0.05
Neigh   | 0.46378    | 0.46378    | 0.46378    |   0.0 |  6.73
Comm    | 0.21717    | 0.21717    | 0.21717    |   0.0 |  3.15
Output  | 0.012771   | 0.012771   | 0.012771   |   0.0 |  0.19
Modify  | 0.47536    | 0.47536    | 0.47536    |   0.0 |  6.90
Other   |            | 0.04139    |            |       |  0.60

Nlocal:             96 ave          96 max          96 min
Histogram: 1 0 0 0 0 0 0 0 0 0
Nghost:            508 ave         508 max         508 min
Histogram: 1 0 0 0 0 0 0 0 0 0
Neighs:              0 ave           0 max           0 min
Histogram: 1 0 0 0 0 0 0 0 0 0
FullNghs:         2700 ave        2700 max        2700 min
Histogram: 1 0 0 0 0 0 0 0 0 0

Total # of neighbors = 2700
Ave neighs/atom = 28.125
Ave special neighs/atom = 0
Neighbor list builds = 3779
Dangerous builds = 0

fix npt1 all npt temp 5000 4000 0.1 iso 0 0 1
run 80000
Per MPI rank memory allocation (min/avg/max) = 8.549 | 8.549 | 8.549 Mbytes
   Step          Temp          E_pair         E_mol          TotEng         Press          Volume    
     80000   4555.985      -557.63996      0             -501.69377      6514.7498      1569.3567    
     81000   4702.1365     -558.33476      0             -500.59387     -29822.643      1609.0298    
     82000   5078.0259     -558.2104       0             -495.85369     -24706.241      1495.2994    
     83000   4164.7688     -574.0337       0             -522.89153     -4465.9905      1536.6129    
     84000   5083.1642     -552.27306      0             -489.85326      37941.294      1549.1737    
     85000   5579.266      -557.80374      0             -489.29195     -51308.938      1563.4594    
     86000   4663.5901     -555.08182      0             -497.81426     -14168.397      1475.3172    
     87000   4766.7908     -561.2757       0             -502.74087     -35491.045      1587.7741    
     88000   5408.0271     -547.20032      0             -480.7913      -2734.5708      1490.2926    
     89000   4179.4543     -557.80462      0             -506.48212      4817.9688      1512.9744    
     90000   4575.1739     -548.88833      0             -492.70651      48121.16       1571.2607    
     91000   4958.2849     -552.01565      0             -491.12933      6830.0277      1561.1132    
     92000   5315.0354     -553.8795       0             -488.61238      64001.603      1494.6155    
     93000   4173.0162     -560.11658      0             -508.87313     -54830.351      1414.5666    
     94000   4870.3224     -563.57655      0             -503.77039     -30017.059      1423.6541    
     95000   5511.9418     -552.41324      0             -484.72817     -4484.8587      1414.248     
     96000   4579.571      -567.74147      0             -511.50565     -24360.255      1439.0552    
     97000   4051.336      -562.93777      0             -513.18852     -8121.0786      1408.8845    
     98000   4624.4811     -561.98452      0             -505.19722      14314.079      1338.2575    
     99000   4407.8602     -566.92574      0             -512.79848     -19337.67       1420.1081    
    100000   4530.7318     -563.52006      0             -507.88398      1316.0959      1463.878     
    101000   4662.0696     -553.76941      0             -496.52053     -28603.918      1367.935     
    102000   4884.1093     -546.96541      0             -486.98995     -4575.3953      1488.1359    
    103000   5252.3571     -555.16081      0             -490.66337      25518.809      1518.7769    
    104000   4479.7632     -558.9451       0             -503.93489      33419.492      1421.8713    
    105000   5143.7648     -556.79378      0             -493.62982     -5081.31        1510.8413    
    106000   4100.2364     -559.36913      0             -509.0194      -4364.6819      1407.7304    
    107000   5034.9381     -563.6436       0             -501.816        24359.958      1488.0556    
    108000   5005.8633     -559.7964       0             -498.32583     -25038.25       1419.8621    
    109000   4139.2302     -560.8519       0             -510.02334      17025.773      1381.8932    
    110000   4869.7629     -557.29341      0             -497.49411      73255.638      1438.2951    
    111000   4154.9723     -565.61604      0             -514.59417      12423.138      1384.8412    
    112000   4412.826      -563.30295      0             -509.11471     -3096.4204      1420.7255    
    113000   4844.2648     -563.36013      0             -503.87394     -27595.938      1421.6917    
    114000   4912.9146     -560.76876      0             -500.43958      66741.967      1419.1351    
    115000   5183.1558     -568.66975      0             -505.02208      35115.855      1461.0174    
    116000   4397.5441     -570.20605      0             -516.20547     -21398.704      1410.4051    
    117000   4654.2652     -554.72928      0             -497.57624      88219.855      1378.0007    
    118000   3806.4184     -561.78459      0             -515.04286      9065.587       1385.8226    
    119000   4668.1698     -568.06925      0             -510.74546      16558.881      1378.9763    
    120000   4747.1475     -555.41332      0             -497.11971      45137.177      1399.244     
    121000   4569.3537     -562.77665      0             -506.6663       74080.446      1316.9208    
    122000   4842.9236     -562.81538      0             -503.34566      3433.0187      1241.9267    
    123000   5205.0774     -562.39258      0             -498.47572      3692.3882      1300.385     
    124000   4655.6122     -573.00387      0             -515.83429     -10128.83       1294.1261    
    125000   4809.4989     -565.26109      0             -506.20182     -36820.105      1378.0031    
    126000   3889.7431     -562.12339      0             -514.35846     -20606.341      1341.9685    
    127000   4894.386      -550.77186      0             -490.6702      -17798.688      1369.0941    
    128000   4773.3896     -560.10316      0             -501.4873      -24796.668      1426.8408    
    129000   4970.9072     -566.10715      0             -505.06584      23154.34       1402.5513    
    130000   4369.6258     -561.03398      0             -507.37622      9501.2069      1406.8926    
    131000   4589.8627     -573.67618      0             -517.31398     -19229.523      1502.6935    
    132000   4447.2315     -567.38531      0             -512.77458      4967.8266      1505.8279    
    133000   4148.939      -574.54358      0             -523.59579     -8203.4567      1469.7187    
    134000   4626.2966     -566.79265      0             -509.98305     -5391.8405      1490.2493    
    135000   3794.3271     -568.87303      0             -522.27978     -57567.087      1549.2746    
    136000   4886.2925     -570.89932      0             -510.89705      27200.418      1435.6472    
    137000   4851.2148     -575.45667      0             -515.88514      29224.234      1427.934     
    138000   3752.2563     -573.58035      0             -527.50372     -21638.293      1496.2629    
    139000   4558.6822     -572.59303      0             -516.61371      34917.384      1480.8282    
    140000   4596.726      -575.47748      0             -519.031        14565.693      1562.5774    
    141000   4366.3971     -574.76275      0             -521.14465     -11761.775      1557.6757    
    142000   3805.7495     -578.03697      0             -531.30345      30810.432      1466.1127    
    143000   4682.0654     -567.33951      0             -509.84509     -19997.953      1588.3202    
    144000   4223.4865     -567.88066      0             -516.01745     -7351.3302      1568.9701    
    145000   3622.3896     -573.97762      0             -529.49571     -12491.721      1521.7834    
    146000   4543.1735     -575.5053       0             -519.71643      15914.324      1583.6137    
    147000   4500.8185     -567.9975       0             -512.72874     -62878.72       1638.6984    
    148000   4628.9937     -573.77216      0             -516.92944      2182.2803      1556.0976    
    149000   4062.2303     -575.21635      0             -525.33332      11264.431      1551.2013    
    150000   4253.0918     -567.17871      0             -514.95196      1040.9595      1523.4069    
    151000   3719.5135     -570.30502      0             -524.63046      10381.276      1513.7331    
    152000   4556.4409     -571.73221      0             -515.78042      72855.573      1545.64      
    153000   4007.7895     -578.56858      0             -529.35407      21163.433      1479.7751    
    154000   3831.6897     -574.71524      0             -527.66319      10091.855      1573.0434    
    155000   4164.2923     -574.55884      0             -523.42253     -33767.785      1612.4201    
    156000   4087.7276     -567.28048      0             -517.08436     -41386.118      1594.6209    
    157000   4305.5268     -571.42491      0             -518.55427     -4388.7419      1524.4912    
    158000   4265.0942     -581.53112      0             -529.15698      6036.8873      1494.392     
    159000   3886.1283     -574.37756      0             -526.65702     -28717.721      1507.3321    
    160000   3621.3105     -573.97738      0             -529.50872      21992.062      1566.2789    
Loop time of 7.0935 on 1 procs for 80000 steps with 96 atoms

Performance: 974.414 ns/day, 0.025 hours/ns, 11277.934 timesteps/s, 1.083 Matom-step/s
99.2% CPU use with 1 MPI tasks x no OpenMP threads

MPI task timing breakdown:
Section |  min time  |  avg time  |  max time  |%varavg| %total
---------------------------------------------------------------
Pair    | 5.898      | 5.898      | 5.898      |   0.0 | 83.15
Bond    | 0.003406   | 0.003406   | 0.003406   |   0.0 |  0.05
Neigh   | 0.42677    | 0.42677    | 0.42677    |   0.0 |  6.02
Comm    | 0.22253    | 0.22253    | 0.22253    |   0.0 |  3.14
Output  | 0.012694   | 0.012694   | 0.012694   |   0.0 |  0.18
Modify  | 0.48787    | 0.48787    | 0.48787    |   0.0 |  6.88
Other   |            | 0.04225    |            |       |  0.60

Nlocal:             96 ave          96 max          96 min
Histogram: 1 0 0 0 0 0 0 0 0 0
Nghost:            536 ave         536 max         536 min
Histogram: 1 0 0 0 0 0 0 0 0 0
Neighs:              0 ave           0 max           0 min
Histogram: 1 0 0 0 0 0 0 0 0 0
FullNghs:         2770 ave        2770 max        2770 min
Histogram: 1 0 0 0 0 0 0 0 0 0

Total # of neighbors = 2770
Ave neighs/atom = 28.854167
Ave special neighs/atom = 0
Neighbor list builds = 3272
Dangerous builds = 0

fix npt1 all npt temp 4000 4000 0.1 iso 0 0 1
run 80000
Per MPI rank memory allocation (min/avg/max) = 8.549 | 8.549 | 8.549 Mbytes
   Step          Temp          E_pair         E_mol          TotEng         Press          Volume    
    160000   3621.3105     -573.97738      0             -529.50872      21992.062      1566.2789    
    161000   3884.2799     -567.70326      0             -520.00541      33192.772      1482.909     
    162000   3938.159      -572.45252      0             -524.09305      317.02347      1589.8632    
    163000   4558.032      -559.98438      0             -504.01306     -9717.8588      1539.1213    
    164000   4313.1734     -576.41547      0             -523.45094      16580.629      1564.5401    
    165000   3649.7464     -576.91845      0             -532.10061     -22636.521      1605.9406    
    166000   3607.5601     -570.46165      0             -526.16184     -30137.56       1619.301     
    167000   4798.1288     -565.49477      0             -506.57513      13518.636      1678.0964    
    168000   4266.5383     -565.87347      0             -513.4816      -19785.72       1622.4003    
    169000   4371.0978     -571.5839       0             -517.90807      41655.136      1531.0433    
    170000   3929.6816     -569.42067      0             -521.16531     -5299.4489      1581.7204    
    171000   4073.2128     -571.74798      0             -521.73009      18584.669      1514.6616    
    172000   4044.4589     -565.47401      0             -515.80922     -8706.1127      1583.431     
    173000   3829.6884     -571.65692      0             -524.62944     -26822.104      1712.2571    
    174000   4495.069      -572.86912      0             -517.67096      20580.69       1643.7072    
    175000   3788.9973     -570.24025      0             -523.71245     -25467.942      1656.7409    
    176000   3905.1565     -565.0043       0             -517.0501      -18495.795      1619.6337    
    177000   3897.8951     -573.13753      0             -525.2725       32238.879      1631.3259    
    178000   3491.2033     -562.20614      0             -519.33516      22289.891      1670.624     
    179000   4137.1116     -557.0817       0             -506.27916      21240.333      1698.377     
    180000   4152.4093     -572.09876      0             -521.10836     -29382.944      1641.909     
    181000   3987.0905     -572.34958      0             -523.38925      16910.896      1574.4879    
    182000   4702.7206     -570.7527       0             -513.00464     -18437.682      1644.1028    
    183000   4263.7635     -572.53445      0             -520.17666      218.64883      1566.968     
    184000   4482.4036     -566.75218      0             -511.70955     -7824.021       1609.0669    
    185000   3840.3959     -574.51309      0             -527.35413      21304.114      1590.8       
    186000   4142.8987     -570.2714       0             -519.39779     -17187.478      1653.7751    
    187000   4267.4815     -560.06104      0             -507.65759      60612.192      1630.8973    
    188000   4126.904      -570.4275       0             -519.7503       7383.7722      1472.2545    
    189000   4329.066      -571.41298      0             -518.25329     -4662.3286      1572.4829    
    190000   3425.5502     -573.94492      0             -531.88015     -8531.4662      1582.2459    
    191000   3835.9262     -562.08956      0             -514.98549     -9841.3768      1630.6559    
    192000   4016.7156     -574.0999       0             -524.77578     -19718.7        1675.5867    
    193000   3798.6082     -565.22524      0             -518.57942     -8040.8557      1659.3544    
    194000   3998.7074     -565.82753      0             -516.72455     -42207.561      1652.6706    
    195000   3607.9898     -563.13571      0             -518.83063      16586.06       1590.1189    
    196000   4062.9173     -570.48761      0             -520.59615     -17141.7        1484.2657    
    197000   4665.0994     -565.55711      0             -508.27102      934.21683      1595.1284    
    198000   3557.4838     -562.27686      0             -518.59198      2162.9112      1645.1457    
    199000   4075.6841     -559.33556      0             -509.28732      3986.2207      1746.6902    
    200000   4067.2794     -574.61475      0             -524.66972      3507.9249      1701.0593    
    201000   3893.8526     -565.81862      0             -518.00322     -27015.14       1712.9239    
    202000   3433.5778     -573.20749      0             -531.04414      6477.8678      1524.0002    
    203000   4083.7366     -572.43988      0             -522.29276     -5234.7768      1513.9777    
    204000   3919.5132     -568.67732      0             -520.54682      4292.5343      1498.3438    
    205000   3962.1431     -578.31746      0             -529.66347     -5400.2422      1677.9238    
    206000   3729.069      -570.8912       0             -525.0993       15222.339      1671.8669    
    207000   4366.8548     -570.70619      0             -517.08247      59974.574      1644.2567    
    208000   3892.5737     -572.6626       0             -524.86291     -4113.718       1578.4173    
    209000   4290.5834     -570.92595      0             -518.23881      990.71678      1533.797     
    210000   4591.7468     -578.48763      0             -522.10229     -1785.622       1590.1246    
    211000   3666.0935     -569.2081       0             -524.18952     -32364.894      1663.9106    
    212000   4046.0862     -566.04174      0             -516.35696     -8505.0621      1660.2885    
    213000   4320.0868     -569.16612      0             -516.11669     -15163.305      1613.1281    
    214000   3646.9741     -572.7646       0             -527.98081     -16015.967      1583.4285    
    215000   3746.9824     -564.94743      0             -518.93556      14837.29       1579.894     
    216000   4202.1849     -567.69983      0             -516.0982      -28620.363      1601.8706    
    217000   4450.9937     -574.63545      0             -519.97852     -2623.4692      1590.9243    
    218000   4473.967      -573.23052      0             -518.29149      1687.4851      1564.2701    
    219000   3430.9885     -575.65684      0             -533.52528      3695.4793      1644.4039    
    220000   3884.7796     -574.85236      0             -527.14838     -4818.3542      1653.0114    
    221000   4114.7495     -578.52382      0             -527.99587     -26746.101      1556.1043    
    222000   3756.9738     -572.33117      0             -526.1966      -9391.4861      1588.0358    
    223000   3517.1628     -574.80719      0             -531.61744      23510.951      1527.0813    
    224000   3825.9985     -575.85516      0             -528.873       -6065.1818      1588.577     
    225000   3840.9056     -566.9607       0             -519.79548     -24350.273      1589.6335    
    226000   3998.5379     -570.3606       0             -521.2597       23777.884      1526.776     
    227000   3986.2081     -579.2518       0             -530.30231      13494.742      1545.0528    
    228000   4578.04       -578.65247      0             -522.43545      24435.074      1590.0248    
    229000   4451.2124     -571.30089      0             -516.64127     -1821.6894      1552.0118    
    230000   4112.6022     -575.94676      0             -525.44518      30351.475      1527.4218    
    231000   4262.2829     -574.02805      0             -521.68843      9600.879       1471.1831    
    232000   4788.8776     -574.87716      0             -516.07111      15966.822      1514.5778    
    233000   4346.4856     -582.76978      0             -529.39618     -1979.0144      1514.6264    
    234000   4540.518      -577.97381      0             -522.21755     -9093.3846      1520.9259    
    235000   3989.9283     -568.49042      0             -519.49524     -12533.399      1475.68      
    236000   4656.9877     -580.67358      0             -523.4871       13234.359      1467.3386    
    237000   3447.1828     -581.97068      0             -539.64026      56902.098      1428.8054    
    238000   4017.6166     -582.97814      0             -533.64296      17939.353      1477.9057    
    239000   3907.381      -570.46353      0             -522.48201      11386.299      1505.9746    
    240000   3504.3474     -572.53268      0             -529.50029     -65715.323      1579.6299    
Loop time of 6.67518 on 1 procs for 80000 steps with 96 atoms

Performance: 1035.478 ns/day, 0.023 hours/ns, 11984.694 timesteps/s, 1.151 Matom-step/s
99.3% CPU use with 1 MPI tasks x no OpenMP threads

MPI task timing breakdown:
Section |  min time  |  avg time  |  max time  |%varavg| %total
---------------------------------------------------------------
Pair    | 5.5498     | 5.5498     | 5.5498     |   0.0 | 83.14
Bond    | 0.0034172  | 0.0034172  | 0.0034172  |   0.0 |  0.05
Neigh   | 0.38115    | 0.38115    | 0.38115    |   0.0 |  5.71
Comm    | 0.2141     | 0.2141     | 0.2141     |   0.0 |  3.21
Output  | 0.011833   | 0.011833   | 0.011833   |   0.0 |  0.18
Modify  | 0.47452    | 0.47452    | 0.47452    |   0.0 |  7.11
Other   |            | 0.04035    |            |       |  0.60

Nlocal:             96 ave          96 max          96 min
Histogram: 1 0 0 0 0 0 0 0 0 0
Nghost:            530 ave         530 max         530 min
Histogram: 1 0 0 0 0 0 0 0 0 0
Neighs:              0 ave           0 max           0 min
Histogram: 1 0 0 0 0 0 0 0 0 0
FullNghs:         2676 ave        2676 max        2676 min
Histogram: 1 0 0 0 0 0 0 0 0 0

Total # of neighbors = 2676
Ave neighs/atom = 27.875
Ave special neighs/atom = 0
Neighbor list builds = 3073
Dangerous builds = 0

fix npt1 all npt temp 4000 3000 0.1 iso 0 0  1
run 80000
Per MPI rank memory allocation (min/avg/max) = 8.549 | 8.549 | 8.549 Mbytes
   Step          Temp          E_pair         E_mol          TotEng         Press          Volume    
    240000   3504.3474     -572.53268      0             -529.50029     -65715.323      1579.6299    
    241000   4026.1994     -571.10088      0             -521.66031     -16284.947      1510.3647    
    242000   4136.7882     -575.34694      0             -524.54836      12230.393      1542.5929    
    243000   4338.4794     -579.89669      0             -526.62141     -23951.557      1531.925     
    244000   4471.8767     -574.61793      0             -519.70457      1087.668       1496.9496    
    245000   3715.5497     -570.78044      0             -525.15456     -14362.956      1483.2764    
    246000   3314.8009     -576.53892      0             -535.83411      11503.251      1460.3915    
    247000   4512.488      -577.11387      0             -521.70181      21894.631      1472.1451    
    248000   3709.1932     -575.78777      0             -530.23993     -37273.484      1487.4219    
    249000   4708.5281     -579.11212      0             -521.29274      81317.257      1383.8501    
    250000   4334.7305     -584.92717      0             -531.69792      86122.699      1361.1098    
    251000   3553.7745     -574.17359      0             -530.53426      36267.01       1369.5693    
    252000   4232.6957     -572.13192      0             -520.15563     -6384.8805      1379.2227    
    253000   3524.8816     -574.9613       0             -531.67676     -1590.6062      1397.114     
    254000   3598.4009     -579.71291      0             -535.52557      10461.542      1445.5946    
    255000   3658.854      -577.83238      0             -532.9027       25011.901      1408.5451    
    256000   4244.8933     -578.45081      0             -526.32474     -37778.109      1487.2244    
    257000   3773.5587     -585.01332      0             -538.6751      -20663.432      1429.6108    
    258000   4155.6212     -579.26314      0             -528.2333      -26262.659      1471.9019    
    259000   3651.8018     -572.75324      0             -527.91016     -19180.621      1499.2389    
    260000   3427.5692     -573.46582      0             -531.37626     -38750.528      1513.9148    
    261000   3889.1254     -575.59775      0             -527.84041     -14044.914      1476.0272    
    262000   3205.0336     -585.11379      0             -545.75689      10951.231      1395.8768    
    263000   3673.3627     -578.30122      0             -533.19338      31960.473      1365.0944    
    264000   3362.0991     -574.58841      0             -533.30279     -5535.3152      1403.5532    
    265000   3549.3394     -581.40177      0             -537.8169      -2494.5091      1425.6697    
    266000   3153.6563     -581.43089      0             -542.70489     -7176.7882      1401.0828    
    267000   3531.2815     -587.16551      0             -543.80239      12661.804      1424.4295    
    268000   3505.1669     -574.21         0             -531.16756     -67700.311      1455.0286    
    269000   3582.8681     -587.6581       0             -543.66151     -16794.909      1429.936     
    270000   4072.2157     -585.31546      0             -535.30982      25741.163      1420.7383    
    271000   3622.5824     -575.69903      0             -531.21476      5691.5518      1400.8484    
    272000   3535.249      -578.42698      0             -535.01513     -47653.41       1418.431     
    273000   3187.5355     -573.15207      0             -534.01005     -1501.6983      1367.9477    
    274000   3165.4408     -580.54733      0             -541.67662     -42249.31       1420.1294    
    275000   4101.4444     -583.22107      0             -532.8565       7760.9146      1382.5879    
    276000   3634.1782     -576.86761      0             -532.24094     -21405.298      1431.6045    
    277000   3441.3338     -576.85205      0             -534.59346     -34534.466      1353.0601    
    278000   3666.0404     -581.04328      0             -536.02535      12771.709      1362.5565    
    279000   3311.2618     -586.02889      0             -545.36754      35277.37       1273.6551    
    280000   3298.2683     -577.54362      0             -537.04183      14098.922      1341.7399    
    281000   2908.6942     -584.76162      0             -549.04369     -8139.3153      1382.4259    
    282000   3345.7838     -576.85111      0             -535.76584      7330.525       1397.2897    
    283000   3725.3054     -580.092        0             -534.34632     -10385.608      1386.8562    
    284000   3645.359      -581.21765      0             -536.45368     -26045.356      1391.3918    
    285000   3425.8496     -584.85138      0             -542.78293     -9123.7644      1344.9722    
    286000   3500.3152     -583.3507       0             -540.36783      27291.371      1342.5772    
    287000   3149.0034     -586.62915      0             -547.96029     -28215.024      1409.5509    
    288000   3312.163      -581.08947      0             -540.41706      5366.3089      1430.34      
    289000   3603.649      -583.13323      0             -538.88145      9585.0039      1365.228     
    290000   3402.1744     -587.14422      0             -545.36649      49519.611      1334.1474    
    291000   3689.7307     -582.53014      0             -537.2213       29498.429      1274.138     
    292000   3380.0164     -581.93145      0             -540.42582     -2158.5042      1347.0916    
    293000   3551.8539     -577.9503       0             -534.33455      21906.152      1352.8898    
    294000   3046.0598     -581.34739      0             -543.94265     -18720.934      1313.2886    
    295000   2904.2262     -579.87362      0             -544.21055      7542.9773      1342.125     
    296000   3679.1642     -584.31875      0             -539.13966     -16880.764      1340.1617    
    297000   3719.7382     -580.92387      0             -535.24655      50178.471      1281.2528    
    298000   3234.5913     -585.02834      0             -545.30848      3979.7845      1308.8654    
    299000   3399.2914     -582.66445      0             -540.92212      39807.735      1283.2385    
    300000   3359.3613     -589.52648      0             -548.27449      16168.678      1327.1202    
    301000   3479.6692     -591.27544      0             -548.5461       24285.905      1306.1462    
    302000   3843.2187     -587.43974      0             -540.24612      21410.147      1318.5272    
    303000   3437.0052     -586.23523      0             -544.02979      32792.603      1294.7957    
    304000   3333.3869     -589.55271      0             -548.61967      78822.185      1285.5415    
    305000   3474.4463     -585.98647      0             -543.32126      22875.835      1338.0486    
    306000   3111.3513     -588.08189      0             -549.87539     -23045.345      1367.9841    
    307000   3260.7724     -582.91503      0             -542.87368      11506.112      1426.9243    
    308000   3285.0618     -585.83927      0             -545.49965     -12870.908      1398.3684    
    309000   2756.1106     -579.19554      0             -545.35129     -70554.545      1462.9988    
    310000   3151.5778     -583.00564      0             -544.30517     -9006.4768      1331.9112    
    311000   3178.6882     -583.3404       0             -544.30702     -24241.919      1431.0127    
    312000   3168.6812     -587.52865      0             -548.61815     -16249.654      1407.3427    
    313000   3466.02       -582.40389      0             -539.84215      38638.042      1382.649     
    314000   3362.7054     -587.93209      0             -546.63903      17397.453      1342.0797    
    315000   3066.883      -587.52848      0             -549.86804      37142.892      1352.9194    
    316000   3077.3113     -585.67904      0             -547.89054      40205.31       1334.5958    
    317000   2643.2755     -591.42536      0             -558.9667       51064.836      1309.6221    
    318000   2947.0201     -582.64067      0             -546.4521       16984.292      1371.5143    
    319000   2769.9346     -590.61973      0             -556.60573      27726.399      1390.2215    
    320000   3165.2435     -584.47067      0             -545.60239     -19957.954      1381.0562    
Loop time of 7.04589 on 1 procs for 80000 steps with 96 atoms

Performance: 980.997 ns/day, 0.024 hours/ns, 11354.134 timesteps/s, 1.090 Matom-step/s
99.3% CPU use with 1 MPI tasks x no OpenMP threads

MPI task timing breakdown:
Section |  min time  |  avg time  |  max time  |%varavg| %total
---------------------------------------------------------------
Pair    | 5.9061     | 5.9061     | 5.9061     |   0.0 | 83.82
Bond    | 0.0033848  | 0.0033848  | 0.0033848  |   0.0 |  0.05
Neigh   | 0.37102    | 0.37102    | 0.37102    |   0.0 |  5.27
Comm    | 0.22655    | 0.22655    | 0.22655    |   0.0 |  3.22
Output  | 0.011573   | 0.011573   | 0.011573   |   0.0 |  0.16
Modify  | 0.48546    | 0.48546    | 0.48546    |   0.0 |  6.89
Other   |            | 0.0418     |            |       |  0.59

Nlocal:             96 ave          96 max          96 min
Histogram: 1 0 0 0 0 0 0 0 0 0
Nghost:            560 ave         560 max         560 min
Histogram: 1 0 0 0 0 0 0 0 0 0
Neighs:              0 ave           0 max           0 min
Histogram: 1 0 0 0 0 0 0 0 0 0
FullNghs:         3058 ave        3058 max        3058 min
Histogram: 1 0 0 0 0 0 0 0 0 0

Total # of neighbors = 3058
Ave neighs/atom = 31.854167
Ave special neighs/atom = 0
Neighbor list builds = 2801
Dangerous builds = 0

fix npt1 all npt temp 3000 3000 0.1 iso 0 0 1
run 80000
Per MPI rank memory allocation (min/avg/max) = 8.549 | 8.549 | 8.549 Mbytes
   Step          Temp          E_pair         E_mol          TotEng         Press          Volume    
    320000   3165.2435     -584.47067      0             -545.60239     -19957.954      1381.0562    
    321000   2597.5606     -585.0912       0             -553.19389     -19962.237      1380.7       
    322000   2564.0226     -588.81284      0             -557.32738     -3429.0211      1342.1353    
    323000   2910.0912     -583.15876      0             -547.42368      27950.267      1377.7543    
    324000   2772.9891     -590.12896      0             -556.07745     -16510.86       1397.2834    
    325000   3099.3389     -586.53197      0             -548.47298     -42854.291      1410.194     
    326000   3099.1226     -590.57589      0             -552.51955      26364.234      1342.4712    
    327000   3175.0123     -588.13301      0             -549.14477     -42173.493      1401.2948    
    328000   3114.6454     -583.95921      0             -545.71226     -21136.928      1408.533     
    329000   3040.6368     -585.98249      0             -548.64434     -8165.8495      1394.8306    
    330000   2907.7497     -587.62         0             -551.91366      40424.231      1368.1926    
    331000   2972.6006     -589.15937      0             -552.65669      22043.514      1367.789     
    332000   3083.5519     -589.36043      0             -551.49529      12624.879      1366.2281    
    333000   3253.1014     -592.12015      0             -552.17299      25624.721      1344.2207    
    334000   2944.0289     -585.49651      0             -549.34468      3753.0192      1386.9402    
    335000   2691.9037     -586.39944      0             -553.34364     -32319.316      1467.1567    
    336000   2817.6369     -584.26815      0             -549.66838     -23165.467      1414.92      
    337000   2738.4757     -586.49766      0             -552.86997     -735.25228      1383.7469    
    338000   2807.5201     -586.49172      0             -552.01618     -16083.194      1489.5776    
    339000   3130.5697     -579.32032      0             -540.87782     -29544.821      1509.941     
    340000   2959.3447     -587.90177      0             -551.56187      16676.814      1407.6968    
    341000   3338.4483     -585.79018      0             -544.79499     -40708.233      1404.6095    
    342000   3049.1484     -589.59336      0             -552.15069     -3575.2583      1392.9809    
    343000   2784.9256     -584.14875      0             -549.95066     -43366.45       1459.7392    
    344000   2643.0301     -592.17229      0             -559.71663     -6420.735       1366.1705    
    345000   2915.4465     -582.36728      0             -546.56643      18925.503      1354.582     
    346000   2790.1301     -592.59665      0             -558.33465      55093.076      1340.1168    
    347000   3058.8929     -584.25297      0             -546.69064     -1854.1091      1393.5461    
    348000   2757.3501     -589.95634      0             -556.09687     -25846.551      1397.3951    
    349000   3370.8967     -580.76214      0             -539.36849     -16401.931      1384.9324    
    350000   2855.8617     -586.84373      0             -551.77456     -19678.113      1416.3459    
    351000   3490.6346     -586.50052      0             -543.63653     -25844.262      1419.2952    
    352000   3327.2302     -586.32118      0             -545.46374     -20445.602      1444.5442    
    353000   3248.2506     -594.06764      0             -554.18005     -17891.429      1387.9205    
    354000   3397.3357     -584.71602      0             -542.99771      33098.857      1376.2733    
    355000   2660.5002     -589.27607      0             -556.60589      11234.714      1334.653     
    356000   2388.3618     -587.93453      0             -558.60613     -20305.218      1388.6614    
    357000   2908.344      -589.76082      0             -554.04719     -45465.029      1440.2956    
    358000   2751.2056     -588.37901      0             -554.59499      8465.0058      1369.0681    
    359000   3335.6925     -590.97408      0             -550.01274     -6771.1481      1342.9337    
    360000   3554.7816     -588.01455      0             -544.36285     -10186.871      1383.6649    
    361000   3067.1825     -586.30961      0             -548.64548     -8403.2811      1428.4514    
    362000   2744.8038     -592.00297      0             -558.29757     -48872.127      1443.4856    
    363000   2882.8075     -590.24459      0             -554.84453     -6032.264       1358.3362    
    364000   2899.6283     -587.62467      0             -552.01807     -143.16644      1324.4925    
    365000   2998.2725     -589.43062      0             -552.61269     -11874.491      1404.3996    
    366000   2624.8658     -588.88219      0             -556.64959      356.94018      1392.393     
    367000   2923.5725     -594.31624      0             -558.41561      15057.744      1350.3793    
    368000   3258.9976     -588.20249      0             -548.18294      31838.891      1329.6317    
    369000   2777.0778     -589.60478      0             -555.50306     -158.84923      1390.9368    
    370000   2578.9573     -591.03647      0             -559.36761     -43142.628      1426.4684    
    371000   2936.8474     -585.9898       0             -549.92615     -20289          1372.4182    
    372000   2481.5085     -586.31527      0             -555.84306      46130.341      1346.2119    
    373000   2795.7622     -592.82701      0             -558.49585      15683.485      1381.8654    
    374000   3145.6713     -585.89408      0             -547.26614     -20916.858      1453.056     
    375000   2988.8192     -587.93022      0             -551.22837     -32912.804      1474.303     
    376000   2952.2398     -586.91057      0             -550.65791     -25108.903      1444.3619    
    377000   3111.3052     -579.90735      0             -541.70142     -17132.63       1406.6158    
    378000   2935.6965     -582.58966      0             -546.54015     -24673.058      1388.0252    
    379000   2736.8472     -584.62978      0             -551.02208      45162.919      1397.3738    
    380000   3269.5201     -586.95664      0             -546.80787      4132.746       1399.3901    
    381000   3182.6615     -588.99112      0             -549.90895      4234.2458      1380.4834    
    382000   2680.8959     -591.18486      0             -558.26422      10323.064      1355.7308    
    383000   3098.2065     -592.60169      0             -554.5566      -3247.7139      1352.8759    
    384000   2840.6593     -593.79394      0             -558.91145      26891.85       1352.1488    
    385000   3036.8624     -588.27487      0             -550.98307      17124.714      1369.5578    
    386000   2855.2273     -585.01714      0             -549.95576      1160.016       1415.3113    
    387000   2893.2028     -595.02085      0             -559.49314      50025.492      1378.7259    
    388000   2835.0509     -582.43525      0             -547.62164     -9845.4317      1344.149     
    389000   2992.4726     -589.89637      0             -553.14966      9034.7813      1386.4884    
    390000   2869.2841     -589.05288      0             -553.81889      21251.321      1340.736     
    391000   2886.189      -589.50843      0             -554.06685     -7332.2722      1417.4194    
    392000   3434.5821     -589.48037      0             -547.30469      20096.13       1378.0722    
    393000   2765.4629     -589.8701       0             -555.911       -1039.6811      1343.5067    
    394000   2676.1671     -588.46725      0             -555.60468     -17281.596      1370.154     
    395000   3346.8352     -589.28538      0             -548.1872       21065.865      1388.998     
    396000   2835.9207     -589.86006      0             -555.03577      17725.169      1375.9805    
    397000   3122.296      -588.36928      0             -550.02838      9703.5391      1334.702     
    398000   3048.9348     -586.19688      0             -548.75683     -57574.758      1412.8079    
    399000   2949.2417     -590.49486      0             -554.27902     -18056.626      1348.2479    
    400000   2939.6555     -594.03976      0             -557.94163     -11803.509      1340.0417    
Loop time of 6.86842 on 1 procs for 80000 steps with 96 atoms

Performance: 1006.345 ns/day, 0.024 hours/ns, 11647.506 timesteps/s, 1.118 Matom-step/s
99.2% CPU use with 1 MPI tasks x no OpenMP threads

MPI task timing breakdown:
Section |  min time  |  avg time  |  max time  |%varavg| %total
---------------------------------------------------------------
Pair    | 5.7717     | 5.7717     | 5.7717     |   0.0 | 84.03
Bond    | 0.0034735  | 0.0034735  | 0.0034735  |   0.0 |  0.05
Neigh   | 0.33371    | 0.33371    | 0.33371    |   0.0 |  4.86
Comm    | 0.2174     | 0.2174     | 0.2174     |   0.0 |  3.17
Output  | 0.012776   | 0.012776   | 0.012776   |   0.0 |  0.19
Modify  | 0.48869    | 0.48869    | 0.48869    |   0.0 |  7.12
Other   |            | 0.04063    |            |       |  0.59

Nlocal:             96 ave          96 max          96 min
Histogram: 1 0 0 0 0 0 0 0 0 0
Nghost:            552 ave         552 max         552 min
Histogram: 1 0 0 0 0 0 0 0 0 0
Neighs:              0 ave           0 max           0 min
Histogram: 1 0 0 0 0 0 0 0 0 0
FullNghs:         3116 ave        3116 max        3116 min
Histogram: 1 0 0 0 0 0 0 0 0 0

Total # of neighbors = 3116
Ave neighs/atom = 32.458333
Ave special neighs/atom = 0
Neighbor list builds = 2508
Dangerous builds = 0

fix npt1 all npt temp 3000 2000 0.1 iso 0 0 1
run 80000
Per MPI rank memory allocation (min/avg/max) = 8.549 | 8.549 | 8.549 Mbytes
   Step          Temp          E_pair         E_mol          TotEng         Press          Volume    
    400000   2939.6555     -594.03976      0             -557.94163     -11803.509      1340.0417    
    401000   3252.8552     -586.93937      0             -546.99524      2808.546       1356.0532    
    402000   2711.543      -584.13803      0             -550.84106      7858.4223      1356.5543    
    403000   2789.8627     -594.88352      0             -560.6248       16492.254      1275.3394    
    404000   3272.1666     -592.24884      0             -552.06757     -15549.407      1351.2073    
    405000   2811.647      -592.00067      0             -557.47445     -30348.989      1340.1405    
    406000   2660.7879     -594.92576      0             -562.25204      19021.322      1291.2166    
    407000   3033.504      -589.39291      0             -552.14235      31185.861      1256.245     
    408000   2694.7831     -590.06811      0             -556.97695      22443.813      1351.8833    
    409000   2754.5641     -583.08525      0             -549.25999     -46693.715      1384.3837    
    410000   2832.9707     -591.01933      0             -556.23126     -18093.679      1379.8849    
    411000   2992.8157     -588.93052      0             -552.1796       13293.001      1308.049     
    412000   2950.8641     -592.63978      0             -556.40402     -9158.7592      1305.7568    
    413000   3090.6917     -589.73593      0             -551.78312     -16718.834      1324.9845    
    414000   2922.6081     -592.81878      0             -556.92999     -6673.3117      1359.7135    
    415000   2868.5267     -592.65639      0             -557.4317      -7972.9875      1253.7389    
    416000   2709.4767     -590.55881      0             -557.28721      60764.632      1309.2857    
    417000   2762.7661     -592.2186       0             -558.29262     -22042.913      1373.0322    
    418000   2645.0413     -585.95905      0             -553.4787       1301.5         1327.1386    
    419000   2728.4544     -595.79023      0             -562.28559      27253.17       1333.1548    
    420000   2888.0624     -597.06967      0             -561.60509      20752.722      1328.1602    
    421000   2630.3571     -595.78767      0             -563.48764     -26676.591      1339.4308    
    422000   3374.4431     -597.28583      0             -555.84863      13579.866      1362.6807    
    423000   3028.3404     -594.10343      0             -556.91628     -20428.621      1392.9601    
    424000   2886.6609     -597.24643      0             -561.79906      10564.638      1337.3976    
    425000   2547.6604     -597.71952      0             -566.43497      52344.807      1302.3208    
    426000   2950.529      -596.18132      0             -559.94967      28031.82       1312.9168    
    427000   2892.334      -591.78649      0             -556.26946     -10137.473      1353.6277    
    428000   2468.0576     -594.25313      0             -563.94609     -11955.149      1346.7397    
    429000   2355.721      -599.0096       0             -570.08203      42071.475      1274.53      
    430000   2610.0465     -595.11409      0             -563.06346      10995.881      1269.1022    
    431000   2404.0498     -592.96835      0             -563.4473       8139.0817      1298.5633    
    432000   2736.3505     -598.70914      0             -565.10754     -13218.467      1321.0767    
    433000   2395.5922     -591.33441      0             -561.91723      30793.006      1341.6615    
    434000   2358.3148     -596.37248      0             -567.41305     -9256.5945      1336.8186    
    435000   2889.3465     -591.98772      0             -556.50737     -9461.907       1314.4948    
    436000   2761.9696     -601.31172      0             -567.39552      14420.269      1345.9469    
    437000   2848.8723     -592.47224      0             -557.4889      -1315.2521      1342.9901    
    438000   2673.8161     -598.58874      0             -565.75504     -19456.784      1366.3991    
    439000   2965.1078     -596.61774      0             -560.20707      50351.472      1267.2552    
    440000   2733.064      -597.78868      0             -564.22744     -11285.317      1366.6085    
    441000   2464.4975     -592.82192      0             -562.55859     -2909.5718      1365.6797    
    442000   2526.075      -598.47614      0             -567.45667     -15439.166      1321.0533    
    443000   2923.6124     -593.41162      0             -557.5105       16682.179      1307.209     
    444000   2409.3491     -597.66203      0             -568.07591     -13190.032      1357.9856    
    445000   2683.8461     -593.43571      0             -560.47885     -36773.596      1367.8881    
    446000   2388.1297     -595.83666      0             -566.51111      44892.816      1273.8959    
    447000   2168.9411     -593.835        0             -567.20103     -7587.6917      1313.338     
    448000   2540.2471     -595.16924      0             -563.97574     -20209.948      1334.136     
    449000   2510.5532     -597.73373      0             -566.90485     -11072.992      1334.3012    
    450000   2659.3113     -598.26445      0             -565.60887      23395.353      1285.1743    
    451000   2339.2247     -597.33833      0             -568.61332      26972.02       1306.4588    
    452000   2750.6727     -598.9852       0             -565.20772     -14708.015      1351.7839    
    453000   2568.9249     -597.5838       0             -566.03814      3252.981       1280.1784    
    454000   2040.9352     -597.5131       0             -572.451       -1836.835       1289.388     
    455000   2307.9111     -595.16791      0             -566.82742     -14516.977      1336.9218    
    456000   2696.3226     -597.08101      0             -563.97094     -28774.397      1313.6246    
    457000   2381.2978     -599.99672      0             -570.75507      4769.9469      1319.3488    
    458000   2166.4179     -596.73066      0             -570.12767      48146.567      1269.1601    
    459000   2169.185      -599.78276      0             -573.14579      24775.937      1320.5726    
    460000   2104.0422     -600.18193      0             -574.3449       13945.564      1355.1329    
    461000   1959.1373     -600.12989      0             -576.07225     -6550.414       1337.8274    
    462000   2283.6329     -602.10301      0             -574.06065      26209.966      1319.4429    
    463000   2215.9898     -598.88821      0             -571.67649      19086.864      1317.9569    
    464000   2270.1154     -599.89513      0             -572.01876      31207.141      1313.1231    
    465000   1984.1358     -600.9555       0             -576.59088     -17704.785      1320.2762    
    466000   2335.1765     -600.90022      0             -572.22492     -25847.805      1352.4038    
    467000   2367.7873     -602.85637      0             -573.78062      32211.039      1288.9757    
    468000   2173.1012     -606.20897      0             -579.52391      13304.858      1320.0697    
    469000   2121.2303     -599.80445      0             -573.75635     -7073.5518      1318.1414    
    470000   2008.1422     -601.91205      0             -577.25264      5076.7736      1323.0764    
    471000   1902.725      -607.55228      0             -584.18736      12161.525      1305.1397    
    472000   2171.5076     -605.11272      0             -578.44723      27345.475      1294.6223    
    473000   1984.5829     -607.08722      0             -582.71711     -26479.973      1317.8004    
    474000   2260.6457     -604.83422      0             -577.07414      932.58947      1275.0588    
    475000   2270.9842     -604.368        0             -576.48096      18583.244      1318.3718    
    476000   2020.1945     -608.15277      0             -583.34536     -3007.9745      1324.2787    
    477000   1997.7198     -608.35134      0             -583.81992     -3195.877       1308.3042    
    478000   2085.6188     -603.01563      0             -577.40483     -7869.0387      1333.8501    
    479000   2115.7075     -603.58016      0             -577.59988      24651.097      1333.5632    
    480000   1938.5807     -606.49125      0             -582.68603     -20646.996      1288.5242    
Loop time of 6.91034 on 1 procs for 80000 steps with 96 atoms

Performance: 1000.240 ns/day, 0.024 hours/ns, 11576.851 timesteps/s, 1.111 Matom-step/s
99.2% CPU use with 1 MPI tasks x no OpenMP threads

MPI task timing breakdown:
Section |  min time  |  avg time  |  max time  |%varavg| %total
---------------------------------------------------------------
Pair    | 5.8528     | 5.8528     | 5.8528     |   0.0 | 84.70
Bond    | 0.0037049  | 0.0037049  | 0.0037049  |   0.0 |  0.05
Neigh   | 0.29294    | 0.29294    | 0.29294    |   0.0 |  4.24
Comm    | 0.21701    | 0.21701    | 0.21701    |   0.0 |  3.14
Output  | 0.012086   | 0.012086   | 0.012086   |   0.0 |  0.17
Modify  | 0.49314    | 0.49314    | 0.49314    |   0.0 |  7.14
Other   |            | 0.03869    |            |       |  0.56

Nlocal:             96 ave          96 max          96 min
Histogram: 1 0 0 0 0 0 0 0 0 0
Nghost:            536 ave         536 max         536 min
Histogram: 1 0 0 0 0 0 0 0 0 0
Neighs:              0 ave           0 max           0 min
Histogram: 1 0 0 0 0 0 0 0 0 0
FullNghs:         3202 ave        3202 max        3202 min
Histogram: 1 0 0 0 0 0 0 0 0 0

Total # of neighbors = 3202
Ave neighs/atom = 33.354167
Ave special neighs/atom = 0
Neighbor list builds = 2193
Dangerous builds = 0

fix npt1 all npt temp 2000 2000 0.1 iso 0 0 1
run 80000
Per MPI rank memory allocation (min/avg/max) = 8.549 | 8.549 | 8.549 Mbytes
   Step          Temp          E_pair         E_mol          TotEng         Press          Volume    
    480000   1938.5807     -606.49125      0             -582.68603     -20646.996      1288.5242    
    481000   1918.395      -608.49494      0             -584.9376      -14689.483      1330.931     
    482000   1871.9622     -606.67953      0             -583.69237     -37984.28       1330.0028    
    483000   1914.7434     -605.16374      0             -581.65124     -15622.147      1317.3714    
    484000   2287.7779     -607.07816      0             -578.9849       48347.096      1276.5049    
    485000   2246.4663     -603.48128      0             -575.89532     -4091.784       1331.552     
    486000   2020.5389     -607.66131      0             -582.84967      10691.22       1289.236     
    487000   2014.836      -602.03665      0             -577.29504      19797.029      1292.1828    
    488000   1846.5894     -605.94441      0             -583.26882     -9549.8449      1324.1263    
    489000   2179.0404     -603.48639      0             -576.7284       13729.363      1314.2606    
    490000   1923.7701     -602.64319      0             -579.01984     -11931.573      1328.49      
    491000   1809.4934     -605.43571      0             -583.21565      29976.083      1342.9942    
    492000   2126.2898     -606.005        0             -579.89477      16306.491      1311.8969    
    493000   2046.149      -606.74048      0             -581.61436      11377.073      1327.9419    
    494000   2030.3309     -603.00019      0             -578.06831     -10533.911      1306.093     
    495000   2006.822      -602.18748      0             -577.54428     -18819.247      1349.0429    
    496000   1923.3529     -606.53952      0             -582.9213      -3007.724       1304.4757    
    497000   2127.633      -604.271        0             -578.14428     -10087.12       1354.1411    
    498000   1679.9574     -606.95942      0             -586.33003      30423          1311.0953    
    499000   1956.2426     -605.04735      0             -581.02525     -26002.541      1336.092     
    500000   1931.9791     -602.71922      0             -578.99506     -10068.594      1356.1741    
    501000   2086.436      -602.73937      0             -577.11853      30216.623      1272.7562    
    502000   1717.0333     -605.54146      0             -584.45679     -22155.048      1320.4317    
    503000   2362.6431     -607.72338      0             -578.7108      -13824.183      1336.2206    
    504000   1869.2163     -605.08081      0             -582.12737     -11956.999      1354.4046    
    505000   2185.4665     -608.43778      0             -581.60088     -3408.1027      1303.7434    
    506000   1938.0165     -607.60537      0             -583.80708     -2918.8888      1350.8865    
    507000   2029.2278     -605.61964      0             -580.70131      5568.1253      1325.7286    
    508000   1949.9706     -606.38628      0             -582.44119      3525.6366      1358.3751    
    509000   2034.7786     -603.82527      0             -578.83877      31779.59       1332.0885    
    510000   1938.7376     -605.91189      0             -582.10474      40440.538      1319.3158    
    511000   2283.9048     -603.29963      0             -575.25394      32303.675      1289.9631    
    512000   1754.2576     -604.28571      0             -582.74393     -55.301879      1326.2848    
    513000   1801.0519     -604.45445      0             -582.33804     -9151.5471      1322.899     
    514000   2130.1932     -602.51601      0             -576.35784     -12907.58       1333.1746    
    515000   1959.8777     -604.90555      0             -580.83881      43893.327      1273.6674    
    516000   1858.5377     -608.11232      0             -585.29001     -19757.215      1328.0144    
    517000   2087.4529     -605.67531      0             -580.04199      12465.922      1301.0598    
    518000   1746.9766     -605.65107      0             -584.1987       18495.339      1320.9539    
    519000   2050.6245     -603.59907      0             -578.41799     -3916.3659      1358.5541    
    520000   1849.2397     -607.24386      0             -584.53572      22159.731      1305.7432    
    521000   1769.5042     -602.51439      0             -580.78538      37983.89       1290.7516    
    522000   2102.667      -605.17839      0             -579.35824      9057.1546      1355.0083    
    523000   2203.761      -604.4671       0             -577.40555      24579.145      1288.5171    
    524000   2290.0618     -607.91907      0             -579.79776      8435.9282      1310.829     
    525000   1859.9288     -608.31523      0             -585.47584      28227.633      1284.9913    
    526000   1910.7992     -605.84612      0             -582.38205     -35929.833      1357.6455    
    527000   1982.6126     -610.53969      0             -586.19377      20655.858      1305.8487    
    528000   2139.9669     -605.5674       0             -579.28922     -14230.889      1351.4548    
    529000   1877.032      -606.4528       0             -583.40339     -10250.134      1302.2532    
    530000   2005.8701     -607.98965      0             -583.35813     -32750.96       1354.6951    
    531000   2162.3477     -606.60478      0             -580.05176      12184.811      1308.3083    
    532000   1887.3931     -608.30761      0             -585.13097     -12329.816      1331.6262    
    533000   1950.1796     -602.77274      0             -578.82509      2435.9722      1307.9674    
    534000   1933.023      -603.91827      0             -580.1813      -8710.3672      1321.556     
    535000   2127.7903     -608.69966      0             -582.571        3589.6404      1318.2089    
    536000   2157.6023     -608.50273      0             -582.00799      33668.477      1312.9558    
    537000   2091.7405     -603.95382      0             -578.26785      29540.441      1309.0567    
    538000   1814.5674     -605.19832      0             -582.91595      24783.781      1288.1642    
    539000   1825.3921     -606.90737      0             -584.49208     -1203.96        1327.7612    
    540000   1756.2539     -605.4478       0             -583.8815      -33944.913      1345.5547    
    541000   2086.2259     -606.24614      0             -580.62788     -17463.823      1321.7977    
    542000   1748.7614     -606.84966      0             -585.37537     -13454.094      1352.7968    
    543000   1926.9378     -608.44546      0             -584.78321      6598.098       1285.9738    
    544000   2146.5908     -605.16527      0             -578.80575     -18204.081      1338.5659    
    545000   1906.2201     -607.40798      0             -584.00014      8981.3015      1301.5183    
    546000   1871.9844     -604.65837      0             -581.67094     -4483.7363      1340.3167    
    547000   2175.5198     -603.05317      0             -576.33841     -2587.2695      1315.0294    
    548000   2194.5264     -605.40888      0             -578.46072     -9816.2994      1347.4325    
    549000   1886.2004     -606.58289      0             -583.42089     -14988.92       1359.7492    
    550000   2027.5365     -606.64151      0             -581.74394     -5352.3968      1277.8776    
    551000   1724.8728     -605.4563       0             -584.27536     -17542.774      1355.6912    
    552000   1795.9912     -605.3454       0             -583.29115      8210.5548      1305.7273    
    553000   1866.5918     -604.76068      0             -581.83947      1634.3921      1318.1599    
    554000   1855.8337     -607.82334      0             -585.03423     -5729.8619      1356.7693    
    555000   1927.5319     -604.91638      0             -581.24684     -5984.9954      1309.2938    
    556000   1959.3135     -605.91646      0             -581.85665      57869.235      1292.2638    
    557000   1838.3988     -607.32036      0             -584.74535      16834.266      1307.4833    
    558000   2211.8855     -605.54797      0             -578.38665      8412.561       1300.2534    
    559000   2176.9831     -609.20302      0             -582.47029     -24527.449      1381.0386    
    560000   1684.506      -605.61866      0             -584.93341      29423.225      1303.2173    
Loop time of 6.82355 on 1 procs for 80000 steps with 96 atoms

Performance: 1012.962 ns/day, 0.024 hours/ns, 11724.099 timesteps/s, 1.126 Matom-step/s
99.3% CPU use with 1 MPI tasks x no OpenMP threads

MPI task timing breakdown:
Section |  min time  |  avg time  |  max time  |%varavg| %total
---------------------------------------------------------------
Pair    | 5.8206     | 5.8206     | 5.8206     |   0.0 | 85.30
Bond    | 0.0034454  | 0.0034454  | 0.0034454  |   0.0 |  0.05
Neigh   | 0.24638    | 0.24638    | 0.24638    |   0.0 |  3.61
Comm    | 0.21132    | 0.21132    | 0.21132    |   0.0 |  3.10
Output  | 0.012661   | 0.012661   | 0.012661   |   0.0 |  0.19
Modify  | 0.49121    | 0.49121    | 0.49121    |   0.0 |  7.20
Other   |            | 0.03789    |            |       |  0.56

Nlocal:             96 ave          96 max          96 min
Histogram: 1 0 0 0 0 0 0 0 0 0
Nghost:            540 ave         540 max         540 min
Histogram: 1 0 0 0 0 0 0 0 0 0
Neighs:              0 ave           0 max           0 min
Histogram: 1 0 0 0 0 0 0 0 0 0
FullNghs:         3240 ave        3240 max        3240 min
Histogram: 1 0 0 0 0 0 0 0 0 0

Total # of neighbors = 3240
Ave neighs/atom = 33.75
Ave special neighs/atom = 0
Neighbor list builds = 1831
Dangerous builds = 0

fix npt1 all npt temp 2000 1000 0.1 iso 0 0 1
run 80000
Per MPI rank memory allocation (min/avg/max) = 8.549 | 8.549 | 8.549 Mbytes
   Step          Temp          E_pair         E_mol          TotEng         Press          Volume    
    560000   1684.506      -605.61866      0             -584.93341      29423.225      1303.2173    
    561000   2119.7918     -608.14331      0             -582.11288     -19085.151      1354.2898    
    562000   1880.7526     -608.41738      0             -585.32228      3228.6435      1339.5954    
    563000   1984.6385     -609.48334      0             -585.11255     -26663.498      1329.2759    
    564000   2321.4601     -606.24662      0             -577.73975     -9837.7787      1338.8103    
    565000   2040.7599     -609.98189      0             -584.92194      20245.138      1299.5283    
    566000   1787.7238     -603.14794      0             -581.1952      -4338.1552      1334.5527    
    567000   1762.0466     -607.5444       0             -585.90697     -9596.0481      1320.4422    
    568000   1900.8511     -609.03181      0             -585.6899      -24543.459      1323.0062    
    569000   1934.5698     -608.2588       0             -584.50284     -14391.906      1319.8191    
    570000   2067.1201     -607.14899      0             -581.76534      10362.892      1283.54      
    571000   2019.963      -606.63111      0             -581.82654      6629.7236      1322.4154    
    572000   1889.9177     -609.11437      0             -585.90672     -18138.73       1317.4693    
    573000   2027.0877     -605.8574       0             -580.96535      1818.2169      1298.1525    
    574000   1740.919      -606.39445      0             -585.01647     -24849.42       1346.8479    
    575000   1819.1445     -612.06356      0             -589.72499      5391.6416      1321.4747    
    576000   1875.4815     -610.28812      0             -587.25775      19890.033      1292.5967    
    577000   1520.1534     -604.26754      0             -585.60049     -28595.547      1333.7911    
    578000   1740.9785     -608.38165      0             -587.00293      50278.742      1319.6845    
    579000   1420.3811     -606.80616      0             -589.36429     -25276.484      1344.2181    
    580000   1701.2125     -605.7988       0             -584.90839      7889.187       1312.4262    
    581000   1797.3034     -610.4701       0             -588.39973     -19104.457      1335.6594    
    582000   1888.7282     -612.06322      0             -588.87018     -3144.8858      1323.1368    
    583000   1613.7627     -613.35361      0             -593.53707     -10337.628      1331.6384    
    584000   1792.8114     -611.06161      0             -589.0464       14452.491      1295.8427    
    585000   1796.3654     -610.78334      0             -588.72449      34720.731      1307.1518    
    586000   1413.5983     -609.09038      0             -591.7318       36430.165      1293.1335    
    587000   1715.017      -611.06096      0             -590.00104     -25307.401      1349.3747    
    588000   1745.8857     -610.18344      0             -588.74446      23772.145      1317.0207    
    589000   1513.8627     -611.19558      0             -592.60578      11036.147      1320.3167    
    590000   1709.9106     -610.70196      0             -589.70474     -25548.537      1315.2281    
    591000   1680.464      -609.07045      0             -588.43483      3148.2502      1281.7202    
    592000   1598.6509     -613.25323      0             -593.62225     -18291.901      1334.8198    
    593000   1674.2105     -611.59085      0             -591.03202      12817.44       1277.7437    
    594000   1460.2675     -611.74039      0             -593.80873      6075.1233      1333.9848    
    595000   1844.0479     -610.28856      0             -587.64418     -40424.207      1314.3404    
    596000   1628.1778     -612.22479      0             -592.23123     -7972.1376      1315.4786    
    597000   1365.5861     -610.81883      0             -594.04982     -15247.473      1330.1283    
    598000   1535.888      -612.21828      0             -593.35801      18136.912      1304.6577    
    599000   1728.4054     -613.68733      0             -592.46301      5936.8679      1312.7605    
    600000   1647.4412     -613.29922      0             -593.06912      14092.466      1307.0508    
    601000   1633.0878     -615.19235      0             -595.1385      -9762.3446      1333.4829    
    602000   1429.7924     -614.84872      0             -597.29128      1266.2683      1308.3033    
    603000   1513.6762     -613.17135      0             -594.58384     -10942.334      1300.1376    
    604000   1222.6916     -612.51362      0             -597.49931     -10203.596      1313.0177    
    605000   1380.8564     -612.31172      0             -595.3552      -18872.324      1323.774     
    606000   1545.6125     -616.32207      0             -597.34239     -3714.2651      1296.1888    
    607000   1379.2507     -613.88667      0             -596.94987     -5859.7999      1315.4307    
    608000   1213.7406     -614.36381      0             -599.45942      6625.5328      1302.2683    
    609000   1578.6693     -615.89737      0             -596.51177      6225.6358      1307.7545    
    610000   1485.463      -614.48749      0             -596.24643      5825.5501      1277.4645    
    611000   1194.3147     -615.35928      0             -600.69344     -3344.7785      1300.8931    
    612000   1286.3105     -613.69875      0             -597.90323     -7696.3493      1286.7497    
    613000   1409.5492     -615.45985      0             -598.15099      15321.103      1299.1173    
    614000   1263.7163     -616.64252      0             -601.12445      1665.7987      1273.2195    
    615000   1163.3761     -615.4245       0             -601.13858     -318.41533      1302.8535    
    616000   1611.2009     -614.43388      0             -594.6488       13345.601      1268.7452    
    617000   1350.9301     -613.85584      0             -597.26681     -3904.7466      1300.4675    
    618000   1310.4941     -616.08589      0             -599.9934      -8311.7367      1301.5318    
    619000   1441.6875     -615.62632      0             -597.92281      6760.3659      1276.0747    
    620000   1328.4178     -615.87362      0             -599.56103     -11890.439      1316.5811    
    621000   1018.2078     -616.79814      0             -604.29484      10748.967      1257.3977    
    622000   1378.6371     -617.35323      0             -600.42396     -18400.541      1298.9084    
    623000   1166.495      -618.44443      0             -604.1202       20275.964      1288.9483    
    624000   1131.5848     -616.83372      0             -602.93819      18181.937      1273.8572    
    625000   1466.2209     -615.19619      0             -597.19142     -30576.234      1330.0159    
    626000   1159.7852     -618.75158      0             -604.50975      12809.114      1287.7233    
    627000   1236.4976     -616.28331      0             -601.09947     -4406.0087      1304.976     
    628000   1053.759      -618.32411      0             -605.38425     -8827.987       1298.163     
    629000   1061.6688     -615.22245      0             -602.18546     -8150.061       1319.273     
    630000   1126.4399     -618.90807      0             -605.07571      15019.366      1297.9122    
    631000   1270.7969     -617.14301      0             -601.53799     -3844.1469      1287.9746    
[...]
Neighs:              0 ave           0 max           0 min
Histogram: 1 0 0 0 0 0 0 0 0 0
FullNghs:         3250 ave        3250 max        3250 min
Histogram: 1 0 0 0 0 0 0 0 0 0

Total # of neighbors = 3250
Ave neighs/atom = 33.854167
Ave special neighs/atom = 0
Neighbor list builds = 71
Dangerous builds = 0


fix npt1 all npt temp 500 10 0.1 iso 0 0 1
run 80000
Per MPI rank memory allocation (min/avg/max) = 8.549 | 8.549 | 8.549 Mbytes
   Step          Temp          E_pair         E_mol          TotEng         Press          Volume    
    880000   522.34755     -626.22345      0             -619.80917      14991.203      1249.312     
    881000   469.84419     -626.46626      0             -620.69671     -12354.1        1279.8283    
    882000   555.10711     -626.19763      0             -619.38107      1157.6066      1259.5154    
    883000   479.58005     -626.21802      0             -620.32891     -9683.8312      1290.8853    
    884000   577.75003     -626.90671      0             -619.8121      -13513.407      1279.2248    
    885000   399.09437     -626.43044      0             -621.52967     -7912.5726      1268.7535    
    886000   440.7532      -625.69359      0             -620.28127      5151.6813      1250.2856    
    887000   452.97151     -626.47252      0             -620.91016      11774.934      1251.3537    
    888000   427.05842     -626.22713      0             -620.98298     -1754.5181      1268.3413    
    889000   383.46966     -626.59216      0             -621.88326     -1683.5837      1272.7802    
    890000   458.50062     -626.42211      0             -620.79185      700.20372      1276.5316    
    891000   477.23559     -627.60582      0             -621.74551      4884.2985      1263.5174    
    892000   438.40659     -628.06916      0             -622.68566      7343.5605      1268.365     
    893000   454.96366     -627.17252      0             -621.5857      -7818.4712      1272.2164    
    894000   373.5392      -626.82558      0             -622.23862     -3744.6342      1266.5551    
    895000   462.21282     -627.72695      0             -622.05111     -6346.0847      1276.8712    
    896000   446.40191     -627.38617      0             -621.90448      16463.299      1256.3908    
    897000   412.1704      -626.94767      0             -621.88633     -6486.205       1268.6035    
    898000   353.25361     -627.19037      0             -622.85252     -21284.756      1281.9881    
    899000   392.26888     -626.97597      0             -622.15902      23006.138      1248.4183    
    900000   352.12951     -627.27498      0             -622.95093      1112.5853      1271.6613    
    901000   376.30069     -627.77541      0             -623.15455      3835.0849      1258.4442    
    902000   358.82591     -627.76764      0             -623.36137      4034.6484      1257.6764    
    903000   349.59044     -628.35617      0             -624.0633      -1554.9561      1265.992     
    904000   309.62493     -627.69411      0             -623.892        236.73328      1256.1681    
    905000   351.22787     -628.16719      0             -623.85422     -7388.6611      1275.718     
    906000   399.93056     -628.33804      0             -623.42701     -9136.2907      1268.6539    
    907000   306.72755     -628.13951      0             -624.37299     -6567.0309      1266.7147    
    908000   347.8245      -628.09032      0             -623.81914      12107.374      1259.4775    
    909000   319.04526     -628.53071      0             -624.61293      8913.0602      1262.9775    
    910000   340.56036     -627.88294      0             -623.70095     -4934.2246      1276.136     
    911000   330.23871     -628.89469      0             -624.83945      909.35795      1257.8932    
    912000   305.09011     -628.22092      0             -624.4745       2044.867       1279.7647    
    913000   252.5165      -628.5688       0             -625.46797     -5989.6215      1269.4817    
    914000   292.72939     -628.40679      0             -624.81216     -17607.698      1281.695     
    915000   255.23509     -628.99126      0             -625.85704     -3580.0367      1270.1112    
    916000   294.26972     -628.85388      0             -625.24033      3712.4046      1266.8417    
    917000   240.38141     -629.22283      0             -626.27102      2870.4403      1263.2249    
    918000   265.52451     -628.71644      0             -625.45588     -4380.4361      1268.2664    
    919000   261.59977     -628.66909      0             -625.45672     -15032.087      1264.1171    
    920000   256.19686     -629.05852      0             -625.91249     -1902.129       1264.4466    
    921000   253.84739     -629.11158      0             -625.9944       4665.2899      1268.4934    
    922000   225.71242     -629.29333      0             -626.52165     -4989.5874      1265.8001    
    923000   233.02546     -629.30295      0             -626.44146     -3214.1258      1272.9197    
    924000   230.87423     -629.43931      0             -626.60424     -12576.87       1279.3499    
    925000   218.44967     -629.47953      0             -626.79703     -4873.5129      1263.6448    
    926000   216.11482     -629.25656      0             -626.60273      6573.0699      1258.8487    
    927000   220.036       -629.78677      0             -627.08479      928.77458      1269.7003    
    928000   229.7019      -629.62318      0             -626.80251      5321.1504      1250.2621    
    929000   190.22242     -629.965        0             -627.62912     -4924.9999      1267.6604    
    930000   227.46217     -630.05303      0             -627.25986     -2876.1276      1253.5024    
    931000   203.02956     -630.03032      0             -627.53717      186.53419      1256.2675    
    932000   177.98522     -630.27816      0             -628.09255      2119.7637      1257.3726    
    933000   172.29543     -629.84879      0             -627.73305     -1004.5019      1257.0459    
    934000   163.51255     -630.4208       0             -628.41291      115.58018      1259.3128    
    935000   149.0253      -630.32472      0             -628.49473     -7647.383       1266.5138    
    936000   146.17395     -630.37946      0             -628.58449     -9394.7719      1274.7929    
    937000   146.14952     -630.56206      0             -628.76739     -14303.574      1271.0439    
    938000   133.5149      -630.62357      0             -628.98404      3957.6458      1261.2859    
    939000   139.75807     -630.64268      0             -628.92649      2099.9386      1258.6952    
    940000   137.1815      -630.6985       0             -629.01396     -8969.4691      1260.6245    
    941000   125.89069     -630.68818      0             -629.14228     -23.927317      1255.4311    
    942000   107.3586      -630.90791      0             -629.58958     -4040.6455      1261.3597    
    943000   112.17877     -630.77535      0             -629.39783     -5869.6839      1260.4422    
    944000   116.91879     -631.07001      0             -629.63428      3076.3638      1259.6889    
    945000   105.22184     -631.01048      0             -629.71838      3018.1512      1255.7722    
    946000   97.297559     -631.20205      0             -630.00727      4511.3172      1258.2062    
    947000   85.110768     -631.17807      0             -630.13294     -10687.173      1264.6483    
    948000   81.187401     -631.13972      0             -630.14276     -636.09247      1263.8522    
    949000   69.722429     -631.39636      0             -630.54018     -3470.9459      1261.1765    
    950000   74.679439     -631.45884      0             -630.5418      -7088.6349      1261.7984    
    951000   60.638969     -631.50367      0             -630.75904     -8.8739271      1256.2807    
    952000   67.490851     -631.57911      0             -630.75035     -78.961139      1258.3099    
    953000   57.710124     -631.78636      0             -631.0777       2950.075       1258.7439    
    954000   44.29927      -631.62194      0             -631.07796      6422.373       1253.787     
    955000   38.99791      -631.83643      0             -631.35755      723.95805      1256.2546    
    956000   33.994054     -631.9159       0             -631.49846      2075.0038      1251.4052    
    957000   29.887932     -632.02401      0             -631.65699      3437.2684      1251.2653    
    958000   18.552385     -632.04525      0             -631.81743     -4178.7377      1259.4248    
    959000   16.61448      -632.15811      0             -631.95409      2149.9704      1253.9986    
    960000   9.4341196     -632.22268      0             -632.10683      4144.5744      1254.4254    
Loop time of 7.56015 on 1 procs for 80000 steps with 96 atoms

Performance: 914.268 ns/day, 0.026 hours/ns, 10581.805 timesteps/s, 1.016 Matom-step/s
99.3% CPU use with 1 MPI tasks x no OpenMP threads

MPI task timing breakdown:
Section |  min time  |  avg time  |  max time  |%varavg| %total
---------------------------------------------------------------
Pair    | 6.6978     | 6.6978     | 6.6978     |   0.0 | 88.59
Bond    | 0.0042527  | 0.0042527  | 0.0042527  |   0.0 |  0.06
Neigh   | 0.001784   | 0.001784   | 0.001784   |   0.0 |  0.02
Comm    | 0.21546    | 0.21546    | 0.21546    |   0.0 |  2.85
Output  | 0.013067   | 0.013067   | 0.013067   |   0.0 |  0.17
Modify  | 0.58694    | 0.58694    | 0.58694    |   0.0 |  7.76
Other   |            | 0.04081    |            |       |  0.54

Nlocal:             96 ave          96 max          96 min
Histogram: 1 0 0 0 0 0 0 0 0 0
Nghost:            550 ave         550 max         550 min
Histogram: 1 0 0 0 0 0 0 0 0 0
Neighs:              0 ave           0 max           0 min
Histogram: 1 0 0 0 0 0 0 0 0 0
FullNghs:         3316 ave        3316 max        3316 min
Histogram: 1 0 0 0 0 0 0 0 0 0

Total # of neighbors = 3316
Ave neighs/atom = 34.541667
Ave special neighs/atom = 0
Neighbor list builds = 11
Dangerous builds = 0

fix npt1 all npt temp 10 10 0.1 iso 0 0 1
run 80000
Per MPI rank memory allocation (min/avg/max) = 8.549 | 8.549 | 8.549 Mbytes
   Step          Temp          E_pair         E_mol          TotEng         Press          Volume    
    960000   9.4341196     -632.22268      0             -632.10683      4144.5744      1254.4254    
    961000   8.8003077     -632.24767      0             -632.1396      -1793.3444      1254.5837    
    962000   10.461093     -632.23049      0             -632.10203      1444.7876      1255.6025    
    963000   9.4044051     -632.23026      0             -632.11477      2623.6042      1255.3064    
    964000   9.9992742     -632.22956      0             -632.10677     -1030.8689      1256.4991    
    965000   9.9592081     -632.2285       0             -632.1062       982.99081      1255.3397    
    966000   10.622477     -632.24216      0             -632.11172     -2650.0819      1258.6472    
    967000   9.3549561     -632.24488      0             -632.13        -3058.2119      1257.5803    
    968000   9.9434063     -632.24061      0             -632.11851      3695.4511      1254.1865    
    969000   10.227438     -632.22492      0             -632.09933      593.4127       1256.1836    
    970000   9.9266529     -632.22699      0             -632.1051      -1460.3712      1257.9751    
    971000   9.3891404     -632.22628      0             -632.11098      1270.7258      1256.6622    
    972000   10.046272     -632.23857      0             -632.1152       1654.2159      1256.45      
    973000   11.003433     -632.21545      0             -632.08033      1368.9002      1254.9261    
    974000   9.1560591     -632.24069      0             -632.12826     -3245.7113      1257.9138    
    975000   10.292169     -632.23093      0             -632.10454     -605.64668      1257.3025    
    976000   9.8433815     -632.23781      0             -632.11693      650.73914      1255.4651    
    977000   8.7853819     -632.23882      0             -632.13094      1439.0904      1254.3633    
    978000   9.6590587     -632.23697      0             -632.11836     -476.37799      1255.4081    
    979000   10.373083     -632.2565       0             -632.12913      1127.8787      1254.1528    
    980000   10.809925     -632.24596      0             -632.11322      1349.9396      1255.0903    
    981000   10.603456     -632.24818      0             -632.11798     -46.456662      1254.9486    
    982000   10.553235     -632.21518      0             -632.08559      1362.4008      1253.4118    
    983000   9.8279845     -632.23778      0             -632.11709     -937.75985      1256.8239    
    984000   10.918009     -632.22068      0             -632.08661      3518.2787      1252.8729    
    985000   11.66723      -632.24806      0             -632.10479      596.82064      1254.6621    
    986000   9.1531364     -632.24599      0             -632.13359      1680.3829      1254.6833    
    987000   10.294052     -632.25215      0             -632.12574      1738.4763      1255.6484    
    988000   10.336798     -632.24187      0             -632.11493     -691.96415      1256.735     
    989000   9.8327812     -632.23911      0             -632.11837      1480.4448      1253.9345    
    990000   9.0183909     -632.22705      0             -632.11631     -279.98768      1257.8631    
    991000   10.096656     -632.21742      0             -632.09344      1212.7203      1254.3831    
    992000   9.2406573     -632.24493      0             -632.13145     -226.23575      1255.7961    
    993000   10.774871     -632.23625      0             -632.10393     -2357.6712      1256.425     
    994000   9.0973095     -632.22827      0             -632.11656     -2680.3245      1256.6093    
    995000   11.687326     -632.22894      0             -632.08542     -1945.9686      1253.8487    
    996000   9.6222732     -632.2481       0             -632.12994     -588.59849      1254.723     
    997000   9.974722      -632.24947      0             -632.12699      2388.3633      1254.2486    
    998000   9.6951163     -632.24725      0             -632.12819     -257.76938      1257.2874    
    999000   10.390333     -632.22267      0             -632.09508      1722.9194      1254.2313    
   1000000   9.7838597     -632.25056      0             -632.13042      876.56331      1255.6293    
   1001000   10.855515     -632.23938      0             -632.10608     -1564.1471      1256.7595    
   1002000   10.7054       -632.2268       0             -632.09534     -822.36341      1256.0998    
   1003000   10.681667     -632.23763      0             -632.10646      2853.876       1254.3548    
   1004000   11.267209     -632.23019      0             -632.09183     -978.30126      1257.0571    
   1005000   9.9042994     -632.23819      0             -632.11656     -864.81844      1256.2427    
   1006000   10.413627     -632.20633      0             -632.07846      3038.8029      1253.9196    
   1007000   9.05348       -632.24606      0             -632.13488     -1806.9432      1257.545     
   1008000   10.392612     -632.2369       0             -632.10928     -240.19778      1256.1185    
   1009000   7.9525885     -632.24829      0             -632.15063      1041.8952      1254.8598    
   1010000   9.9452874     -632.22999      0             -632.10787     -2383.7064      1256.5339    
   1011000   10.469352     -632.23635      0             -632.10779     -580.49849      1256.7523    
   1012000   9.260805      -632.24334      0             -632.12962     -844.13804      1254.3691    
   1013000   9.6267748     -632.243        0             -632.12479      2383.2353      1255.5025    
   1014000   9.9384064     -632.22655      0             -632.10451      25.845059      1257.2579    
   1015000   9.6683413     -632.23896      0             -632.12024     -1688.974       1257.9012    
   1016000   9.5973204     -632.23088      0             -632.11302     -1034.3035      1257.4825    
   1017000   9.0698575     -632.2408       0             -632.12942      3299.7574      1253.6124    
   1018000   10.435998     -632.23905      0             -632.1109      -537.73329      1253.1503    
   1019000   11.649708     -632.23825      0             -632.09519     -458.78025      1256.2281    
   1020000   8.8660355     -632.23558      0             -632.1267      -3242.8477      1258.611     
   1021000   10.685518     -632.22687      0             -632.09566     -1518.1525      1256.9448    
   1022000   9.626827      -632.24189      0             -632.12367     -975.18367      1255.991     
   1023000   10.844028     -632.25203      0             -632.11887      316.47817      1254.9236    
   1024000   10.827599     -632.23019      0             -632.09723      2590.5075      1253.4777    
   1025000   9.634087      -632.23646      0             -632.11816      1248.749       1253.5124    
   1026000   11.850275     -632.24467      0             -632.09915      2142.4495      1253.9432    
   1027000   9.4162159     -632.23955      0             -632.12392     -630.42048      1255.2229    
   1028000   10.405982     -632.23279      0             -632.10501      1669.1568      1253.852     
   1029000   7.662633      -632.2438       0             -632.1497      -391.63876      1256.5257    
   1030000   10.499696     -632.24042      0             -632.11149     -719.0151       1255.8883    
   1031000   9.4519289     -632.24537      0             -632.1293       3000.0169      1252.5161    
   1032000   10.989843     -632.24457      0             -632.10962     -537.41238      1257.6343    
   1033000   10.363879     -632.2435       0             -632.11624      2086.6076      1254.1559    
   1034000   8.7439267     -632.22369      0             -632.11632      2986.6216      1254.1011    
   1035000   10.047927     -632.24219      0             -632.1188       287.57512      1256.5795    
   1036000   10.541222     -632.24121      0             -632.11177     -2734.5255      1258.1135    
   1037000   9.5993275     -632.25259      0             -632.13471     -637.18817      1254.0294    
   1038000   10.187923     -632.23431      0             -632.10921     -217.00543      1255.6358    
   1039000   9.7208927     -632.2262       0             -632.10683     -601.84481      1255.0502    
   1040000   8.9144577     -632.23378      0             -632.12431      3032.3803      1252.8297    
Loop time of 6.24548 on 1 procs for 80000 steps with 96 atoms

Performance: 1106.720 ns/day, 0.022 hours/ns, 12809.261 timesteps/s, 1.230 Matom-step/s
99.3% CPU use with 1 MPI tasks x no OpenMP threads

MPI task timing breakdown:
Section |  min time  |  avg time  |  max time  |%varavg| %total
---------------------------------------------------------------
Pair    | 5.5358     | 5.5358     | 5.5358     |   0.0 | 88.64
Bond    | 0.0030711  | 0.0030711  | 0.0030711  |   0.0 |  0.05
Neigh   | 0          | 0          | 0          |   0.0 |  0.00
Comm    | 0.19072    | 0.19072    | 0.19072    |   0.0 |  3.05
Output  | 0.011729   | 0.011729   | 0.011729   |   0.0 |  0.19
Modify  | 0.47562    | 0.47562    | 0.47562    |   0.0 |  7.62
Other   |            | 0.02851    |            |       |  0.46

Nlocal:             96 ave          96 max          96 min
Histogram: 1 0 0 0 0 0 0 0 0 0
Nghost:            550 ave         550 max         550 min
Histogram: 1 0 0 0 0 0 0 0 0 0
Neighs:              0 ave           0 max           0 min
Histogram: 1 0 0 0 0 0 0 0 0 0
FullNghs:         3328 ave        3328 max        3328 min
Histogram: 1 0 0 0 0 0 0 0 0 0

Total # of neighbors = 3328
Ave neighs/atom = 34.666667
Ave special neighs/atom = 0
Neighbor list builds = 0
Dangerous builds = 0


write_data amorphousSiO.data
System init for write_data ...


Total wall time: 0:01:28
