96
 Atoms. Timestep: 0
2 0 7.95642 4.74695
2 4.63304 0 11.358
2 0 4.63304 4.74695
2 7.95642 0 11.358
2 0 4.63304 8.47514
2 7.95642 0 1.8641
2 0 7.95642 8.47514
2 4.63304 0 1.8641
2 10.7421 8.43088 6.61105
2 4.15858 10.7421 0
2 1.84736 4.15858 6.61105
2 8.43088 1.84736 0
2 1.84736 8.43088 6.61105
2 8.43088 10.7421 0
2 10.7421 4.15858 6.61105
2 4.15858 1.84736 0
2 10.5201 6.29473 5.04003
2 6.29473 10.5201 11.6511
2 2.06934 6.29473 5.04003
2 6.29473 2.06934 11.6511
2 2.06934 6.29473 8.18207
2 6.29473 2.06934 1.57102
2 10.5201 6.29473 8.18207
2 6.29473 10.5201 1.57102
2 10.1594 8.65935 9.20274
2 3.93011 10.1594 2.59169
2 2.43004 3.93011 9.20274
2 8.65935 2.43004 2.59169
2 2.43004 8.65935 9.20274
2 8.65935 10.1594 2.59169
2 10.1594 3.93011 9.20274
2 3.93011 2.43004 2.59169
2 2.43004 3.93011 4.01936
2 8.65935 2.43004 10.6304
2 10.1594 8.65935 4.01936
2 3.93011 10.1594 10.6304
2 10.1594 3.93011 4.01936
2 3.93011 2.43004 10.6304
2 2.43004 8.65935 4.01936
2 8.65935 10.1594 10.6304
2 0 10.703 0
2 1.88643 0 6.61105
2 0 1.88643 0
2 10.703 0 6.61105
2 0 0 1.872
2 0 0 8.48305
2 0 0 11.3501
2 0 0 4.73905
2 11.2706 2.31295 2.18973
2 10.2765 11.2706 8.80078
2 1.31887 10.2765 2.18973
2 2.31295 1.31887 8.80078
2 1.31887 2.31295 2.18973
2 2.31295 11.2706 8.80078
2 11.2706 10.2765 2.18973
2 10.2765 1.31887 8.80078
2 1.31887 10.2765 11.0324
2 2.31295 1.31887 4.42131
2 11.2706 2.31295 11.0324
2 10.2765 11.2706 4.42131
2 11.2706 10.2765 11.0324
2 10.2765 1.31887 4.42131
2 1.31887 2.31295 11.0324
2 2.31295 11.2706 4.42131
1 11.0086 7.83654 8.10972
1 4.75292 11.0086 1.49867
1 1.5809 4.75292 8.10972
1 7.83654 1.5809 1.49867
1 1.5809 7.83654 8.10972
1 7.83654 11.0086 1.49867
1 11.0086 4.75292 8.10972
1 4.75292 1.5809 1.49867
1 1.5809 4.75292 5.11238
1 7.83654 1.5809 11.7234
1 11.0086 7.83654 5.11238
1 4.75292 11.0086 11.7234
1 11.0086 4.75292 5.11238
1 4.75292 1.5809 11.7234
1 1.5809 7.83654 5.11238
1 7.83654 11.0086 11.7234
1 10.1088 10.1088 3.30552
1 2.48067 10.1088 9.91657
1 2.48067 2.48067 3.30552
1 10.1088 2.48067 9.91657
1 2.48067 10.1088 3.30552
1 10.1088 10.1088 9.91657
1 10.1088 2.48067 3.30552
1 2.48067 2.48067 9.91657
1 0 1.60471 1.57853
1 10.9848 0 8.18958
1 0 10.9848 1.57853
1 1.60471 0 8.18958
1 0 10.9848 11.6436
1 1.60471 0 5.03252
1 0 1.60471 11.6436
1 10.9848 0 5.03252
96
 Atoms. Timestep: 2000
2 12.25 8.31181 4.43536
2 4.50565 0.132304 11.2367
2 11.8901 5.02771 5.07835
2 8.40326 12.4022 11.886
2 11.9431 5.16439 8.26087
2 6.99305 0.614863 1.43172
2 -0.128596 7.75424 8.47488
2 4.35308 0.472095 1.22984
2 11.4828 8.15055 6.93633
2 4.75634 11.0656 12.8216
2 0.54157 4.63149 6.35294
2 8.61197 1.78771 -0.269005
2 2.27469 7.08359 6.91877
2 7.56964 11.0673 0.561526
2 10.2898 4.25156 7.28534
2 4.72262 2.2165 13.1314
2 10.7048 6.37046 5.92017
2 6.25973 10.6639 11.4439
2 1.46326 6.05247 4.29885
2 6.67599 0.86536 11.426
2 1.32046 5.94176 8.39146
2 5.95429 2.80517 1.04755
2 10.5762 6.50083 8.7851
2 5.70222 11.3559 1.71672
2 10.1253 9.00635 9.15096
2 3.16869 10.934 1.61935
2 0.633702 3.18301 8.88251
2 8.97652 2.28454 2.60383
2 2.55659 8.20766 9.072
2 9.02854 11.404 2.51679
2 10.7522 3.19989 9.94343
2 3.71606 2.45703 2.56301
2 1.79166 3.50391 4.97005
2 9.19567 1.46106 10.5804
2 10.2922 9.80987 4.68177
2 4.17027 10.1792 10.3758
2 9.95884 4.52578 4.07329
2 4.37362 1.90322 10.2778
2 1.33763 8.77973 2.89409
2 8.5275 10.3002 10.9717
2 12.5126 11.2935 13.0803
2 2.86706 12.678 6.52005
2 0.495187 1.00478 -0.194982
2 11.0067 12.0949 6.55478
2 12.6147 -0.0441907 1.47148
2 0.543324 11.7837 7.60721
2 1.13521 11.8311 11.6469
2 12.1391 1.66484 5.48668
2 11.4387 2.91723 2.06033
2 10.9501 10.8407 8.73613
2 1.14864 11.5169 2.1726
2 2.33513 0.594293 9.32614
2 0.650519 1.89996 2.61718
2 2.49853 10.564 8.57092
2 11.346 10.5265 2.00587
2 11.0471 0.170692 9.08436
2 1.64827 9.39228 11.2015
2 3.22089 1.26421 4.44746
2 12.4101 0.574265 10.7729
2 11.2504 12.1785 4.24647
2 11.5873 10.6767 10.8878
2 9.88835 1.73879 5.01813
2 1.17663 1.85757 11.1442
2 3.12568 11.3368 4.23536
1 11.2863 8.04842 8.86191
1 4.60729 11.6172 0.657525
1 0.518014 4.42463 7.94191
1 7.50175 2.30384 1.29151
1 1.42653 7.40735 8.43102
1 7.45758 11.9949 2.03679
1 10.7139 4.81918 9.19468
1 4.26386 2.01652 1.04031
1 0.755727 4.87746 4.78586
1 8.30879 1.03881 11.9597
1 10.9835 8.17511 5.55814
1 4.72641 11.3827 11.3417
1 10.2285 4.67625 5.66024
1 5.16122 1.51274 11.6501
1 0.951001 7.60132 4.182
1 7.66362 11.2275 12.4851
1 10.4865 10.9412 3.32135
1 2.74389 9.63271 9.98937
1 2.07761 2.11279 3.57849
1 11.0069 1.55116 9.95455
1 2.19856 10.6397 2.96029
1 9.8562 10.4066 9.97335
1 9.92969 3.48364 2.79302
1 1.67256 1.9973 9.36602
1 12.3385 1.43689 1.44976
1 11.968 12.0021 7.96169
1 12.5592 11.1989 1.23344
1 1.94938 12.2664 8.11041
1 0.468632 10.477 11.7728
1 3.33024 12.6426 5.02104
1 0.655514 0.351948 12.0345
1 11.1088 0.521508 5.19892
96
 Atoms. Timestep: 4000
2 0.362578 8.83331 5.40308
2 4.07729 12.4844 11.7352
2 0.104127 4.51823 4.57464
2 8.21665 12.0939 10.9442
2 0.470986 4.90811 7.34263
2 8.32427 12.5496 1.57188
2 0.841931 8.58991 8.56191
2 4.7458 12.6217 1.39293
2 11.4445 7.60579 6.69389
2 4.1378 10.5172 -0.0259921
2 2.69078 5.10886 6.3779
2 7.89467 0.807882 13.0878
2 2.62569 7.87587 6.63688
2 7.63937 10.2878 13.1163
2 11.0227 5.60381 6.36194
2 4.2119 1.9268 0.185401
2 11.3061 6.76027 3.99303
2 5.94508 10.3889 11.09
2 2.14925 6.98675 4.66907
2 5.86272 1.20276 11.3655
2 2.64556 3.46973 8.7006
2 6.50686 1.08002 1.60472
2 11.9741 6.51566 8.47553
2 6.60197 10.5811 2.09854
2 11.1549 8.19116 9.20862
2 3.84554 11.2295 3.23739
2 0.694251 3.71422 9.05646
2 8.43185 2.49085 2.51262
2 3.17747 9.06432 9.27419
2 8.76138 10.0151 2.45171
2 10.2358 3.91281 8.88688
2 4.42516 2.12685 2.91532
2 2.25755 3.80011 3.97931
2 8.8873 1.58571 10.4266
2 10.2355 9.12052 4.9128
2 3.33753 10.9512 10.3317
2 10.3413 3.99182 4.73709
2 3.27147 2.44689 11.1487
2 2.3055 9.27948 3.84854
2 9.0251 9.66472 10.9029
2 11.5971 10.7891 0.409683
2 1.56176 0.669295 6.47249
2 12.5998 1.44674 0.079195
2 10.3849 -0.217396 6.47497
2 11.5972 12.3075 2.30186
2 12.2292 12.4117 8.43799
2 0.196259 12.571 11.9485
2 12.4537 0.493915 4.54878
2 11.4144 2.1614 2.8284
2 10.3737 10.7166 8.65944
2 1.04391 11.055 2.29678
2 1.54044 1.06618 8.96061
2 1.39338 2.23718 2.40106
2 1.89406 11.7471 8.48672
2 11.4522 9.82017 3.12307
2 10.534 1.13637 8.58362
2 0.764226 10.2148 11.1315
2 2.40191 1.64467 4.47343
2 11.3203 2.34149 10.8157
2 9.68311 11.2437 4.55756
2 11.3026 10.5221 10.7136
2 9.77145 1.29059 4.17493
2 1.22643 1.51459 11.146
2 1.41832 11.7573 4.66892
1 12.1867 8.05264 7.98623
1 4.75553 10.9751 1.69944
1 1.95949 5.11214 8.21231
1 8.02274 1.45696 1.27479
1 2.40388 8.12173 8.05714
1 8.20091 10.9516 1.34648
1 11.4022 5.02974 7.76755
1 4.9791 1.46207 1.59251
1 1.98935 5.18734 5.03426
1 7.46647 0.87029 11.2976
1 11.5326 8.02736 4.98558
1 4.39871 10.9151 11.657
1 11.5349 5.18334 4.84866
1 4.20673 1.34711 11.9553
1 1.87513 8.49097 5.38221
1 7.88073 10.7838 11.3933
1 9.71132 9.96289 3.60475
1 1.8214 10.6549 9.71535
1 2.95503 2.53628 3.32505
1 9.93766 2.23093 9.56726
1 2.1843 10.8564 3.34493
1 10.4939 9.50048 9.80548
1 9.97482 2.90338 3.50714
1 2.02633 2.42034 10.0415
1 12.4992 0.978843 2.2107
1 10.7649 12.0869 8.01728
1 12.1952 10.7429 1.94472
1 0.872278 0.00896878 7.63432
1 12.2175 11.0591 12.0514
1 1.36561 0.564268 4.79684
1 12.3644 1.53005 11.7841
1 10.8868 0.10084 4.75392
96
 Atoms. Timestep: 6000
2 0.00188864 8.05099 5.66107
2 4.50682 12.2749 12.0189
2 0.0622918 4.23327 4.84738
2 7.66099 -0.292599 11.6731
2 1.57641 6.02992 9.00757
2 8.12547 12.3404 1.62645
2 12.7537 7.51805 8.57574
2 4.67738 12.3638 1.95059
2 11.1006 7.97979 6.59758
2 4.72969 10.5685 0.169961
2 1.88049 4.30035 6.48982
2 8.06931 0.905024 13.3904
2 2.17102 8.02415 7.36963
2 8.30025 10.5273 -0.324266
2 10.1961 4.36207 5.97471
2 4.24373 0.928473 -0.20639
2 11.4971 6.28918 4.71407
2 5.93887 10.5407 12.2622
2 1.84367 6.86655 4.79291
2 6.21636 1.36035 11.7346
2 2.19106 3.04128 11.4607
2 6.18297 1.58438 1.14107
2 9.85413 6.38343 8.22294
2 6.48662 11.0264 1.51543
2 10.8295 8.73314 9.36739
2 3.76183 10.065 2.78814
2 2.13261 3.06967 8.72607
2 9.15764 2.00307 1.76394
2 1.14474 9.05507 9.44536
2 9.17564 10.2357 2.53254
2 10.4609 3.93508 9.08004
2 3.37645 2.16854 2.04695
2 2.0079 4.4608 3.54895
2 8.43636 2.34522 10.8679
2 11.127 8.52106 3.75214
2 2.79508 10.3445 11.5382
2 10.4654 3.54471 3.33764
2 3.53788 1.20551 10.8836
2 2.27804 9.33406 4.77399
2 9.18365 11.0831 10.9981
2 -0.0027809 11.8894 -0.103733
2 2.07355 0.329996 6.48078
2 12.5545 1.51223 12.8231
2 10.4119 0.131703 6.0535
2 -0.168172 0.183066 1.59025
2 12.3586 12.7092 7.95972
2 11.891 0.20409 11.2577
2 -0.379945 -0.0847405 4.40475
2 12.0366 2.04553 1.88478
2 10.5739 11.6065 9.04726
2 1.64119 11.3545 2.77672
2 2.64813 0.75162 9.16901
2 1.29505 2.72854 1.73247
2 1.33291 12.1515 9.57281
2 12.2491 10.7128 2.18029
2 9.91237 1.00802 8.61357
2 0.537881 10.6746 11.5814
2 1.65976 1.88015 4.21751
2 11.2447 2.00012 10.103
2 11.2538 11.4166 4.21512
2 11.2164 10.8118 11.4351
2 10.7262 0.795039 2.70254
2 0.704025 1.15786 10.6133
2 2.65029 12.0593 4.36095
1 10.992 7.54806 8.00008
1 5.09674 10.8413 2.03475
1 2.24283 4.56431 8.1593
1 7.75417 1.24392 1.03628
1 1.26189 7.55737 8.74176
1 8.20061 10.8866 1.32283
1 9.7779 4.88672 7.5614
1 4.91342 0.863487 1.59267
1 1.68855 5.04309 5.02782
1 7.73858 1.42448 11.8689
1 11.6826 7.79771 4.96226
1 3.99211 10.9421 12.5354
1 11.3747 4.43214 4.5851
1 4.68255 0.747439 11.8428
1 1.55465 8.22541 5.63195
1 7.66294 11.1634 11.7807
1 11.0112 10.1644 3.11139
1 1.60043 10.5346 10.3742
1 2.51244 2.73813 3.2835
1 9.75412 2.72544 9.94207
1 2.81756 10.6816 4.00015
1 10.469 10.2729 9.98652
1 10.5197 2.47764 2.13743
1 2.0812 2.08777 10.2696
1 0.153404 1.622 0.718781
1 10.7937 12.8458 7.65938
1 0.092393 11.7042 1.60341
1 1.42534 0.0759065 8.2334
1 12.5251 11.9426 12.051
1 1.41093 0.0468168 4.98716
1 12.1775 1.65211 11.3948
1 11.0635 0.0975601 4.34393
96
 Atoms. Timestep: 8000
2 12.8054 8.40198 5.41797
2 5.36624 0.136085 11.9564
2 11.8686 5.53687 4.69116
2 7.33693 0.58771 10.9085
2 2.95882 6.32826 7.96705
2 9.79811 12.4439 1.99377
2 0.429016 6.90447 8.94961
2 4.9764 12.6954 1.18318
2 11.1647 7.53665 6.91763
2 4.12914 11.1794 13.0256
2 1.56815 4.86 5.54221
2 8.60193 1.20924 13.0822
2 1.58207 8.15923 7.41382
2 7.84193 9.80394 0.484383
2 9.85475 5.18708 5.98519
2 4.28074 2.01443 0.0231601
2 10.1292 7.12231 4.75146
2 5.69994 9.99006 12.2604
2 1.1592 6.95631 4.44074
2 6.4765 2.32336 11.9801
2 2.25427 5.68776 10.0202
2 7.55879 12.3415 2.06147
2 10.6647 6.11689 8.59827
2 5.6823 10.326 1.47349
2 11.1022 8.99833 9.41252
2 3.08155 11.1617 2.42054
2 2.1037 4.12651 8.24919
2 9.31268 1.59487 1.91085
2 2.56347 8.30704 9.63745
2 8.68282 9.95538 2.66982
2 10.2562 3.56502 8.39449
2 3.66707 2.29674 2.65829
2 1.08383 3.48995 4.00106
2 9.15589 2.3657 10.5796
2 9.9948 9.21186 5.13606
2 3.53288 11.1769 10.9531
2 10.2613 4.06243 3.29065
2 3.89891 3.20978 10.701
2 2.15304 8.62609 4.1685
2 8.77202 9.45522 11.2711
2 0.0578105 10.6681 13.1652
2 1.88898 12.5846 6.57099
2 0.446206 1.66625 12.5091
2 10.4003 -0.149084 7.03635
2 0.131274 12.7946 1.60917
2 12.8893 12.0382 8.18484
2 12.3187 -0.273631 11.2105
2 -0.0689423 0.550496 5.53508
2 11.8313 2.21965 1.76473
2 10.4152 11.5804 9.64806
2 0.720887 9.88421 1.74282
2 1.26746 0.524215 9.70113
2 1.26546 2.31923 1.93005
2 2.00262 10.6853 8.8956
2 10.8513 10.5345 2.25325
2 11.1227 1.47783 8.69028
2 1.20354 10.3437 11.1674
2 2.46294 1.0574 4.45963
2 12.1809 2.38644 10.5879
2 10.237 12.0443 4.46839
2 11.264 10.2161 11.3818
2 10.5345 1.17756 3.85551
2 1.40146 2.42348 10.2701
2 1.63968 11.2742 3.98095
1 11.7431 7.47383 8.54991
1 4.46566 11.3098 1.33081
1 1.91195 5.09299 6.9779
1 8.82588 0.45934 0.977518
1 1.93407 7.02566 8.99569
1 7.24989 10.5501 1.94079
1 9.81247 5.02874 7.74409
1 4.32 1.41862 1.51803
1 0.650362 5.4382 4.33985
1 7.90197 1.78757 11.6503
1 11.1911 8.27052 5.50517
1 4.92238 11.5018 11.7174
1 10.2128 5.52785 4.4339
1 4.65233 1.88898 11.9302
1 1.48428 8.05589 5.51606
1 7.62636 9.32742 12.5444
1 10.0221 10.4998 3.81035
1 2.52555 9.81599 10.1299
1 2.11186 2.30854 3.40155
1 10.4708 2.64789 9.91811
1 2.0216 9.87645 3.05674
1 9.9386 10.413 10.3494
1 10.4661 2.36715 2.80779
1 2.55535 3.94852 9.9104
1 0.344154 1.28412 0.848388
1 11.1643 -0.154182 8.51458
1 12.314 11.1672 1.26596
1 1.69614 12.2502 8.27774
1 -0.283783 10.9174 11.6457
1 1.50579 12.5833 4.96991
1 0.480897 1.11986 11.0356
1 11.0351 0.368444 5.60595
96
 Atoms. Timestep: 10000
2 -0.0561973 7.50893 4.7926
2 4.54503 12.922 12.462
2 -0.0464602 4.36912 4.91699
2 7.87923 8.62779 11.5236
2 1.39776 5.82026 8.9866
2 10.6646 0.869706 0.76878
2 12.5114 7.54689 8.6838
2 5.28598 -0.0291819 1.91209
2 11.0234 8.70687 6.12756
2 3.82968 11.2667 -0.297931
2 1.63732 3.71272 6.61321
2 8.45105 1.67564 -0.369376
2 2.02788 7.81829 6.661
2 8.0469 10.24 12.7338
2 10.3166 4.83363 6.32299
2 4.99223 2.18238 0.672377
2 11.0249 6.29566 4.59671
2 5.4631 10.2323 11.4413
2 2.04409 6.00438 4.97899
2 6.56707 2.15166 11.7421
2 1.19599 6.13028 12.7973
2 8.42246 12.2707 0.741707
2 10.1431 6.76702 8.18566
2 6.30695 11.1949 1.27279
2 10.1691 9.70847 8.42551
2 3.38 11.257 2.41365
2 1.83925 3.19665 9.69217
2 8.78681 1.72119 2.35392
2 1.68458 8.19985 9.77627
2 9.12082 10.5168 1.76702
2 10.9244 4.3228 9.04262
2 3.21544 1.87776 2.20926
2 2.16352 3.6662 4.21056
2 10.1158 2.31938 11.0335
2 11.1909 9.00445 3.52315
2 3.1099 10.0574 11.308
2 10.2379 3.88317 4.07923
2 4.09734 2.58059 11.3149
2 2.14834 8.67971 3.50584
2 8.21441 10.8244 10.038
2 0.380905 11.8854 13.2111
2 2.03345 12.6193 6.73555
2 12.4242 2.04795 -0.105803
2 10.5487 12.3586 6.64158
2 0.194454 -0.267473 1.45801
2 12.6832 12.2413 7.98613
2 12.2575 0.414064 11.3288
2 12.2619 12.4764 4.7336
2 11.0732 2.24586 2.37118
2 10.3162 12.1235 9.51881
2 0.806154 10.5348 2.33305
2 1.96695 0.660619 9.69487
2 0.374524 1.70018 2.62894
2 2.42326 11.0099 8.94096
2 11.3782 10.6745 1.35345
2 11.5023 1.6849 8.64048
2 1.08723 10.8344 11.0489
2 1.37437 1.38609 4.60015
2 12.3721 2.83454 11.0264
2 9.76704 11.7595 3.72274
2 11.6301 10.3395 10.7689
2 10.2393 1.50695 4.32248
2 1.47534 2.30859 11.674
2 1.23839 11.3367 4.14764
1 10.9564 8.36525 7.80854
1 4.67911 11.587 1.27294
1 1.56446 4.24879 8.42577
1 8.99696 0.930623 1.02116
1 1.54028 7.30719 8.28199
1 7.79739 10.7576 0.747622
1 10.2167 5.02053 7.87334
1 4.80009 1.58483 2.16325
1 1.49411 4.62305 5.16164
1 8.4497 2.23205 11.8369
1 11.2769 7.97736 4.89181
1 4.33189 11.1371 11.9025
1 11.0764 4.8608 5.00325
1 5.21885 1.62253 12.4912
1 1.70433 7.74356 4.71242
1 7.02747 9.90628 11.1888
1 10.581 10.4415 2.80997
1 2.03883 9.89693 10.1844
1 1.81569 2.27076 3.27916
1 11.2595 2.81103 9.61622
1 2.30267 10.4378 3.10032
1 9.8921 10.6565 9.88884
1 9.44208 2.46177 3.50638
1 2.58929 2.01245 10.4825
1 12.2492 1.07117 1.63553
1 11.0154 0.221118 8.1867
1 -0.166701 11.1684 1.02891
1 1.39279 12.4844 8.26443
1 12.5511 11.8423 11.3905
1 1.03669 -0.0743533 5.14329
1 0.0375238 1.76602 11.969
1 10.5436 12.6619 5.02676
96
 Atoms. Timestep: 12000
2 12.3074 7.59818 4.1952
2 5.14172 0.128378 11.5336
2 -0.207785 4.0503 4.92219
2 6.24275 8.42669 12.2543
2 1.0482 6.37726 8.27467
2 10.9988 1.44331 0.847012
2 12.2469 7.91227 7.97516
2 4.53182 0.217823 1.09668
2 10.4423 8.07772 5.8953
2 4.6709 11.4796 13.3679
2 1.78512 4.47795 6.44426
2 8.32763 2.0702 13.4459
2 0.220663 8.40873 6.05202
2 8.16808 10.8767 13.2312
2 10.9299 4.72415 7.02495
2 4.58016 2.47045 13.1503
2 11.4411 5.51446 4.46741
2 6.22275 10.559 11.4584
2 1.42501 6.50103 4.6238
2 6.61666 2.46615 11.6185
2 1.86609 11.0676 1.83685
2 8.90891 12.6484 0.433235
2 9.86904 6.615 8.45063
2 6.73735 11.2852 1.64347
2 10.2023 9.44434 8.74072
2 4.53318 11.1565 2.64061
2 2.22285 3.8377 9.45457
2 9.39895 1.16571 2.18335
2 1.8512 9.20677 9.01088
2 9.99304 10.5501 1.67846
2 10.4193 3.85484 9.67011
2 2.69348 1.78019 1.79144
2 1.19793 4.11521 3.55067
2 9.305 2.39347 10.8866
2 10.3895 8.15426 3.24678
2 3.24968 11.4941 11.0078
2 10.8559 2.66457 4.88812
2 4.31607 2.02719 10.6445
2 2.02252 9.5235 3.72576
2 8.90319 9.74139 11.7673
2 0.775895 11.2409 13.3342
2 1.04399 -0.180451 6.48507
2 -0.0400237 1.32089 13.4847
2 10.4844 11.7922 7.11215
2 12.671 12.6105 1.19265
2 12.3217 0.0829092 8.19465
2 12.7372 12.4277 11.5138
2 12.6659 12.1662 4.88954
2 11.8517 1.43198 2.67085
2 10.3692 11.542 9.98225
2 2.11248 11.7564 4.63015
2 2.08578 0.802279 8.6953
2 0.257272 2.74572 1.79847
2 1.38304 11.7604 8.76094
2 12.2169 10.094 1.58227
2 10.5926 1.32232 9.01139
2 1.1824 11.0657 11.2376
2 1.04943 1.82611 4.07585
2 11.7346 1.84852 11.3785
2 11.3207 10.747 4.15367
2 11.3759 9.75769 11.7076
2 10.2766 -0.197195 4.3268
2 1.22686 1.72095 11.3764
2 0.572199 12.5199 3.23773
1 10.6581 7.95543 7.92077
1 5.15349 11.8916 1.24256
1 1.7546 4.69209 8.12928
1 9.42835 1.06679 0.655762
1 0.562296 8.27235 7.81081
1 8.02179 11.096 0.994101
1 10.2167 5.10847 8.56191
1 3.91185 1.56516 0.492257
1 1.13299 4.99495 5.09742
1 8.19406 2.68925 11.8629
1 10.8316 7.09836 4.625
1 4.8672 11.59 11.6257
1 11.4249 4.15945 5.4785
1 5.1785 1.86874 11.8461
1 0.662793 8.46317 4.53879
1 7.34892 9.75646 12.1314
1 10.8632 9.57606 2.76051
1 2.14417 10.5061 10.1175
1 1.60562 2.64452 2.8835
1 10.7526 2.35744 10.1627
1 2.96197 10.7593 3.33016
1 10.1184 9.78713 10.6098
1 10.5378 1.28684 3.56012
1 2.36599 2.08706 10.1728
1 12.6917 1.18239 1.08659
1 10.7582 12.7522 8.76951
1 0.399136 11.3905 1.25144
1 0.776625 0.0194841 8.17055
1 -0.299741 10.6518 11.9163
1 0.875527 -0.143821 4.67549
1 -0.0342927 0.749234 11.7859
1 11.0976 12.008 5.42016
96
 Atoms. Timestep: 14000
2 0.377516 8.0067 5.19549
2 5.57409 0.00562426 11.0653
2 0.509896 3.9968 5.6032
2 6.82546 11.0325 10.267
2 1.61199 6.59117 8.68927
2 10.8215 2.34243 1.01786
2 0.193833 7.6303 7.81405
2 4.33296 12.4791 1.32345
2 10.4536 7.61867 6.97419
2 5.14138 10.2809 12.7767
2 2.39909 5.1135 6.60629
2 8.34394 3.28586 13.1016
2 2.38635 7.91033 6.30264
2 7.83624 11.9719 12.9647
2 10.7013 4.38942 6.87819
2 3.54104 1.91214 -0.0226812
2 11.1557 5.81839 4.78518
2 8.98063 0.127595 10.2551
2 2.2845 6.11883 4.30529
2 5.65549 2.76567 11.5968
2 2.12731 11.067 2.06995
2 8.77266 0.678149 1.4343
2 9.83249 6.06371 8.95164
2 6.90161 11.1577 1.72011
2 10.9757 8.4607 9.91555
2 4.37041 10.2347 2.02486
2 1.91902 3.33462 8.99176
2 9.18719 2.4249 2.71166
2 2.41456 8.88882 8.95212
2 9.33385 10.2302 1.81196
2 8.99872 3.0053 8.79749
2 3.31222 2.04821 2.0763
2 2.76966 3.92777 3.98923
2 8.15456 2.46146 10.6484
2 10.5917 8.59651 4.42177
2 3.67539 10.1569 10.711
2 11.0616 2.74225 4.54656
2 3.47127 2.18152 11.0727
2 2.26035 9.22959 4.01658
2 9.05693 10.5168 11.0751
2 0.129609 10.2334 0.243915
2 1.30825 0.521 6.44925
2 11.9622 1.96744 12.7164
2 10.5818 11.4123 6.94329
2 0.0329011 12.3017 0.708145
2 12.1268 12.4133 8.83593
2 12.315 12.4736 11.3258
2 12.0874 -0.0374285 5.61189
2 11.3153 0.783969 2.5775
2 10.6102 10.6075 9.07688
2 2.12918 11.3693 4.48831
2 2.10492 1.05305 8.69142
2 1.05306 2.20204 1.58805
2 2.29616 11.4822 8.45715
2 11.6765 10.1389 2.3652
2 9.53474 0.53491 8.25001
2 1.28229 11.2426 10.9046
2 1.56589 1.73692 4.38676
2 10.4506 1.72191 10.2277
2 10.1381 10.6884 4.47772
2 11.6797 9.87716 11.7086
2 9.43137 0.350639 4.61143
2 0.687957 1.76139 10.9445
2 0.760372 12.2705 3.06974
1 10.9879 7.31683 8.63718
1 5.1796 11.0675 0.966245
1 1.64643 5.08894 8.31468
1 8.99928 2.59246 1.1343
1 1.7296 8.2145 7.6417
1 8.44083 11.518 1.52749
1 9.92494 4.43671 8.49976
1 2.94037 0.844013 1.07544
1 1.85614 4.82557 5.02754
1 7.18557 3.22608 11.7644
1 11.4021 7.67507 5.40153
1 5.2465 10.7368 11.0587
1 11.5132 4.34311 5.28508
1 4.72391 1.38582 11.5225
1 2.0562 7.9269 4.64653
1 8.02297 11.8471 11.3856
1 10.2248 9.67537 2.99863
1 2.35269 10.2851 9.71252
1 2.25167 2.57066 3.18896
1 8.67334 1.50058 9.59694
1 2.98957 10.4271 3.38732
1 10.4791 9.87231 10.6701
1 10.0677 1.72572 3.68169
1 2.12573 2.20212 10.0274
1 12.1782 1.29905 1.02842
1 10.4195 12.0489 8.4729
1 0.472252 10.8407 1.64507
1 1.15105 12.4835 8.07877
1 0.240807 10.9214 11.8676
1 0.838563 0.249128 4.84084
1 11.3604 1.31826 11.4373
1 10.6957 11.8805 5.32618
96
 Atoms. Timestep: 16000
2 12.7492 8.03999 4.18425
2 4.8209 -0.142152 11.8474
2 -0.098791 4.7935 5.12084
2 6.73825 11.1266 11.5427
2 1.41468 6.02931 8.20632
2 10.8122 0.914886 0.692586
2 12.8357 8.27595 7.92251
2 3.62668 -0.276934 0.267655
2 11.2118 7.98269 6.33484
2 3.96456 10.7115 12.8136
2 1.80935 4.15611 6.1667
2 8.55755 1.83017 13.3897
2 1.62717 7.76585 6.44141
2 7.80472 10.6156 13.3065
2 10.7153 4.59199 6.78249
2 4.22226 2.0768 13.2596
2 10.5133 6.38872 4.71349
2 8.53776 0.162583 12.1091
2 1.99628 6.24025 4.37852
2 6.29534 1.78683 11.1918
2 0.672237 10.4136 2.26399
2 8.65762 12.5394 1.03744
2 10.8883 6.68087 8.38608
2 5.62083 11.9118 1.38059
2 10.3172 9.11721 9.04478
2 2.80106 11.4592 2.08697
2 2.09657 3.50654 8.9816
2 9.39461 1.69595 2.26578
2 1.66203 8.49136 9.58471
2 8.47105 10.5678 2.25803
2 11.1485 3.63073 9.66253
2 3.66907 1.69006 2.29975
2 2.39566 3.73392 3.5542
2 8.97836 1.27063 10.4735
2 9.82864 9.04156 4.12053
2 3.80503 10.2909 10.3881
2 11.0205 3.98047 3.92076
2 3.56862 2.53872 10.6078
2 1.67894 9.02629 4.43659
2 8.87757 10.9088 10.5124
2 12.4561 11.544 0.0933258
2 2.38892 12.6729 6.96236
2 -0.144294 0.922879 13.0868
2 10.7366 12.228 6.72303
2 -0.0992741 -0.245598 1.64529
2 -0.202194 12.3198 8.81659
2 -0.323816 11.8813 11.5106
2 -0.111553 12.8377 4.99912
2 11.8173 2.47524 2.30186
2 11.046 11.3514 9.45918
2 2.21523 11.284 4.68067
2 0.951403 1.50543 9.1886
2 1.10893 2.1147 1.8517
2 2.47403 11.8881 9.6608
2 11.2839 10.1185 1.6613
2 10.7456 0.755801 8.39224
2 1.15834 10.3454 11.7955
2 2.19058 0.821498 4.20386
2 11.5803 1.293 10.6892
2 10.3318 11.0792 4.50975
2 10.9945 10.2201 11.6987
2 10.9426 0.821959 3.94014
2 0.905086 1.62665 11.2136
2 11.5774 12.0181 3.22655
1 11.1465 8.20332 8.07591
1 3.89053 11.5279 0.781299
1 2.17486 4.78842 7.70837
1 9.0776 0.863845 0.985761
1 1.36423 7.71228 8.11395
1 7.56013 11.3607 1.12422
1 11.1246 4.91931 8.45516
1 3.96507 1.25945 0.7881
1 1.54983 4.68576 4.63586
1 7.77949 1.62819 11.7606
1 11.0819 7.94273 4.37886
1 4.86601 11.2211 11.3558
1 11.3761 4.9855 5.22574
1 4.69523 1.6248 11.6499
1 0.85986 7.44096 4.87877
1 8.2805 11.764 11.8226
1 9.90496 10.1977 3.02494
1 2.03141 10.057 10.4567
1 2.17776 2.05695 3.30002
1 10.4197 1.94941 9.80219
1 2.092 10.3117 3.29054
1 10.281 10.1218 10.3757
1 10.4474 2.49611 3.19421
1 2.02049 2.41473 10.32
1 12.4103 1.16175 1.32406
1 11.4953 12.3387 8.27702
1 12.7026 11.2921 1.90955
1 1.57613 -0.18722 8.60459
1 12.7656 10.6037 12.5326
1 1.48641 12.7752 5.35119
1 12.8734 0.484667 11.1639
1 11.0641 12.5777 4.97053
96
 Atoms. Timestep: 18000
2 0.00566264 7.49708 4.54904
2 4.22481 12.4996 11.2455
2 -0.0306077 4.9254 4.95951
2 6.28038 10.9604 11.2241
2 2.51177 6.04594 7.4161
2 10.7795 2.81907 0.927225
2 0.180435 7.03751 8.13875
2 4.38435 11.8549 1.30754
2 11.6738 7.39887 6.4088
2 4.10326 11.0687 12.9735
2 1.65568 3.78878 6.32404
2 8.49486 2.70294 13.2338
2 1.78552 7.65005 6.30844
2 7.79601 11.4363 0.0394389
2 10.5796 4.61013 6.39238
2 5.09488 1.17801 13.1909
2 10.9686 6.26636 4.31899
2 7.49415 0.365897 12.1429
2 1.76223 5.79641 4.4954
2 6.22273 1.83296 11.3969
2 1.11126 11.2094 2.86519
2 6.79168 12.6793 1.83271
2 11.1113 6.38837 8.20238
2 5.83682 10.496 0.925657
2 10.0276 8.70685 9.20086
2 2.93922 9.74202 2.02786
2 2.38307 3.36115 9.07544
2 8.68454 2.03459 2.51439
2 2.19579 8.41263 9.41577
2 8.84029 11.0142 2.76424
2 9.75216 3.96734 8.92943
2 3.55937 1.56533 1.60941
2 2.70966 3.35935 3.47805
2 8.81073 2.94892 11.0917
2 10.4151 8.69494 4.10033
2 3.93703 9.67015 10.2521
2 10.3369 3.64616 3.7229
2 3.88314 2.40545 10.6438
2 1.8766 8.34687 3.5431
2 8.8367 10.586 11.1871
2 11.9842 11.1858 0.0306745
2 2.27858 0.0641161 6.71201
2 0.0474248 2.08036 0.0146211
2 10.909 12.4163 6.47744
2 0.157981 0.144226 1.49582
2 12.7428 12.0737 8.38755
2 12.6809 0.0237114 11.197
2 0.256107 12.1927 5.49778
2 11.1698 1.56829 2.68321
2 10.3115 11.0404 8.7501
2 2.61578 11.6483 4.2458
2 1.39979 1.47906 9.09466
2 0.78322 2.35658 2.50496
2 1.58098 11.0185 8.44714
2 11.2785 10.284 2.29493
2 10.8459 1.27122 8.98958
2 1.13385 10.579 11.016
2 2.44868 1.19539 4.28646
2 11.0777 2.1242 11.3864
2 10.4013 11.6885 4.44349
2 11.1869 10.3769 11.1321
2 10.5244 0.860386 4.75111
2 0.830535 2.73569 11.3638
2 12.0781 12.6814 3.51596
1 11.4196 7.80422 8.19216
1 4.24964 10.2623 1.05298
1 1.90121 4.48955 7.93061
1 9.30434 2.439 0.887204
1 1.7613 7.42509 7.99062
1 7.46856 11.272 1.48016
1 10.1488 5.11391 7.78949
1 5.07496 0.699154 1.38803
1 1.77871 4.15971 4.80834
1 7.85581 2.01681 11.9376
1 11.1662 7.60961 4.93286
1 4.70758 10.7844 11.3144
1 11.3069 4.54926 4.89856
1 4.82061 1.21867 11.4894
1 1.41935 7.20454 4.83965
1 7.55084 11.2835 11.8929
1 10.0745 10.1185 3.52078
1 1.97158 10.0168 9.75337
1 2.40419 2.05758 2.64202
1 10.105 2.6002 10.2574
1 2.17288 10.1048 3.25955
1 10.0697 10.2551 10.1241
1 9.85149 1.90146 3.55956
1 2.13471 2.20472 10.2801
1 12.4787 1.81154 1.51788
1 10.9154 -0.141394 8.03092
1 12.3665 11.5883 2.04096
1 1.50326 -0.104075 8.16169
1 12.6837 11.1944 11.4474
1 1.85511 -0.0708192 5.12647
1 12.5752 1.73798 11.98
1 11.6386 12.4949 5.03705
96
 Atoms. Timestep: 20000
2 12.713 8.58827 4.97448
2 4.19583 12.4395 11.4276
2 12.1142 4.32375 4.75512
2 6.31517 10.838 11.0384
2 1.94462 6.0705 8.85689
2 9.47765 12.4752 0.369333
2 -0.00881904 7.42001 8.7503
2 3.6221 12.0236 1.07586
2 10.7962 8.33414 6.79874
2 4.52683 10.0035 12.8477
2 1.35778 4.87468 6.49489
2 8.15615 1.6 12.991
2 1.97072 7.79636 6.79707
2 7.80589 11.6739 0.769625
2 9.79584 4.60549 6.4642
2 5.14831 0.832961 13.3704
2 10.9604 6.49058 4.63197
2 8.14328 0.114072 10.7682
2 1.13508 6.16228 4.71534
2 6.34493 1.89986 11.0794
2 1.29389 10.4995 2.12184
2 5.88599 0.329448 1.98255
2 10.0373 6.52812 7.9246
2 5.58755 10.6177 1.68479
2 11.2809 8.48989 9.52374
2 3.05704 9.7654 1.51472
2 1.38156 3.25733 8.67598
2 9.3579 1.95878 1.89171
2 2.40996 9.04795 8.78315
2 8.36743 10.9125 2.95263
2 10.4916 4.06672 9.34575
2 3.91987 2.00672 2.52956
2 2.27068 3.67888 4.4532
2 9.16838 2.51559 10.8745
2 10.4586 9.2398 3.94523
2 3.79233 10.112 10.1479
2 9.86937 3.80812 3.69105
2 3.62884 1.67191 10.4533
2 2.42721 8.40806 4.00162
2 9.24428 10.8065 10.9361
2 0.138116 10.8389 0.598311
2 1.62177 12.4638 6.50964
2 0.808213 2.07623 12.8763
2 9.83259 0.12241 6.82817
2 0.170033 0.448288 1.40316
2 12.1596 -0.153004 8.51394
2 0.487445 12.6289 11.5806
2 12.3659 12.078 5.43438
2 2.84115 1.03389 0.509832
2 10.4295 11.0773 8.84593
2 1.90523 10.975 4.37678
2 2.11445 0.714003 8.49467
2 1.52255 1.91823 2.7082
2 1.43776 11.3729 9.1327
2 11.4683 11.2387 2.17927
2 10.327 1.56786 8.91307
2 0.858661 10.3611 11.1252
2 2.21726 1.28649 5.21543
2 12.0542 1.84248 10.5947
2 10.5871 12.0837 3.84019
2 11.3879 10.8598 11.4426
2 10.7149 1.27169 4.42157
2 1.57491 1.39073 10.3291
2 0.749453 12.6497 3.33325
1 11.3349 7.42164 8.22917
1 4.07088 10.5425 0.755967
1 1.5502 4.74747 8.32212
1 8.74258 1.01304 0.700809
1 1.82511 7.64407 8.39738
1 6.81561 11.7044 2.04082
1 9.696 4.9636 8.13542
1 4.43623 0.511495 1.35967
1 0.888671 4.59103 5.05469
1 7.93946 1.58086 11.5007
1 11.0133 8.18396 5.24356
1 4.61395 10.6658 11.5
1 10.5153 4.80179 4.73049
1 4.9082 1.14799 11.3611
1 1.27139 7.92544 4.98361
1 7.8648 11.333 11.0576
1 10.0747 10.721 3.6469
1 2.12757 10.2263 9.82263
1 2.92773 2.15879 3.9169
1 10.5409 2.64782 10.0377
1 2.60142 9.6932 3.21051
1 10.7527 10.0131 10.0145
1 10.1663 2.46678 3.09851
1 2.24417 2.17271 9.37752
1 1.26474 1.76701 0.885011
1 10.4461 12.7862 8.469
1 0.0983398 11.7376 2.08858
1 0.917354 12.5322 7.94088
1 0.094608 11.1967 12.3684
1 1.22045 12.6285 4.98963
1 0.342918 1.33876 11.4375
1 10.5687 -0.0765977 5.44608
96
 Atoms. Timestep: 22000
2 12.3062 8.28897 4.27825
2 4.87693 11.9674 12.3012
2 0.19864 5.01179 4.32294
2 6.38079 9.83465 10.8282
2 1.75144 6.50739 8.23069
2 11.3008 0.763859 13.1197
2 12.2246 7.22799 7.94583
2 4.29451 12.2663 1.35313
2 11.1969 7.37447 6.26418
2 5.09386 9.8111 13.2833
2 1.82721 5.05291 6.8225
2 8.57166 1.50154 12.6715
2 0.99413 8.30224 6.37386
2 8.69219 -0.0126296 0.67135
2 10.5102 4.67426 5.73362
2 5.1584 1.61174 -0.149376
2 10.7048 6.05394 4.14024
2 8.56391 12.0275 10.6931
2 1.98566 7.11484 4.5857
2 6.04627 0.543958 11.31
2 0.757299 10.5628 2.62383
2 6.15474 0.276063 1.81617
2 9.91481 5.29399 7.94845
2 6.47867 10.9816 1.61727
2 10.5457 7.80089 9.37554
2 3.75076 10.3184 2.55411
2 2.03734 3.98248 9.56725
2 10.0659 2.19915 1.61312
2 1.34766 9.04135 9.16561
2 8.69176 11.6981 3.13949
2 10.5409 2.82469 8.32712
2 4.30195 2.37982 2.79481
2 2.77867 4.34331 4.07355
2 8.70004 1.50527 10.5495
2 9.7718 9.18786 4.00809
2 3.12519 9.97266 11.1279
2 11.42 3.18391 3.08286
2 3.38969 2.14674 10.8783
2 1.75671 9.48547 4.20035
2 8.80456 9.61675 10.901
2 12.5285 11.7397 0.369531
2 1.29695 0.852394 6.58555
2 0.311918 1.71269 -0.0898904
2 10.1412 12.4878 7.49842
2 11.0439 0.326438 2.05038
2 12.1704 11.8857 8.13518
2 0.130013 12.5794 11.4155
2 12.5317 -0.139274 5.15767
2 2.99429 1.17872 0.782818
2 10.8732 10.4157 9.3686
2 2.08207 11.8943 4.1249
2 1.48437 1.23974 9.25506
2 1.97523 3.18653 1.73037
2 1.47138 11.6836 9.13205
2 11.03 10.8871 2.62466
2 10.3923 0.351316 9.65051
2 0.801279 10.3045 11.822
2 1.6068 2.04559 4.05724
2 11.1688 2.40197 11.2407
2 9.80796 12.0058 4.91425
2 11.5632 9.67056 11.7187
2 10.4875 1.55329 4.59358
2 0.303035 2.36685 10.7005
2 0.156888 0.0052935 3.2479
1 10.7003 6.94281 7.95838
1 4.79688 10.5949 1.21368
1 2.22042 4.98109 8.43522
1 9.84488 1.33155 0.308889
1 1.08503 7.76111 7.95201
1 7.61904 12.1714 1.88098
1 9.82179 3.60806 7.0644
1 4.62882 1.04302 1.75683
1 1.716 5.45293 4.95951
1 7.73917 0.573195 11.4145
1 10.7477 7.64254 4.75319
1 4.90559 10.0653 11.6168
1 11.4613 4.5295 4.18015
1 4.4491 0.908341 11.8488
1 0.947722 8.18836 4.69986
1 7.66462 10.664 10.2302
1 9.82913 10.7167 3.62872
1 1.76422 10.1827 10.2289
1 2.75949 3.17023 3.08115
1 10.2717 2.04144 9.98437
1 2.33542 10.694 3.19707
1 10.4359 9.21747 10.2534
1 10.8479 1.72331 2.97633
1 1.84885 2.56022 10.3485
1 1.52174 2.18934 0.775507
1 10.8161 11.9886 8.76705
1 12.4864 11.7343 2.1097