96
 Atoms. Timestep: 0
2 0 7.95642 4.74695
2 4.63304 0 11.358
2 0 4.63304 4.74695
2 7.95642 0 11.358
2 0 4.63304 8.47514
2 7.95642 0 1.8641
2 0 7.95642 8.47514
2 4.63304 0 1.8641
2 10.7421 8.43088 6.61105
2 4.15858 10.7421 0
2 1.84736 4.15858 6.61105
2 8.43088 1.84736 0
2 1.84736 8.43088 6.61105
2 8.43088 10.7421 0
2 10.7421 4.15858 6.61105
2 4.15858 1.84736 0
2 10.5201 6.29473 5.04003
2 6.29473 10.5201 11.6511
2 2.06934 6.29473 5.04003
2 6.29473 2.06934 11.6511
2 2.06934 6.29473 8.18207
2 6.29473 2.06934 1.57102
2 10.5201 6.29473 8.18207
2 6.29473 10.5201 1.57102
2 10.1594 8.65935 9.20274
2 3.93011 10.1594 2.59169
2 2.43004 3.93011 9.20274
2 8.65935 2.43004 2.59169
2 2.43004 8.65935 9.20274
2 8.65935 10.1594 2.59169
2 10.1594 3.93011 9.20274
2 3.93011 2.43004 2.59169
2 2.43004 3.93011 4.01936
2 8.65935 2.43004 10.6304
2 10.1594 8.65935 4.01936
2 3.93011 10.1594 10.6304
2 10.1594 3.93011 4.01936
2 3.93011 2.43004 10.6304
2 2.43004 8.65935 4.01936
2 8.65935 10.1594 10.6304
2 0 10.703 0
2 1.88643 0 6.61105
2 0 1.88643 0
2 10.703 0 6.61105
2 0 0 1.872
2 0 0 8.48305
2 0 0 11.3501
2 0 0 4.73905
2 11.2706 2.31295 2.18973
2 10.2765 11.2706 8.80078
2 1.31887 10.2765 2.18973
2 2.31295 1.31887 8.80078
2 1.31887 2.31295 2.18973
2 2.31295 11.2706 8.80078
2 11.2706 10.2765 2.18973
2 10.2765 1.31887 8.80078
2 1.31887 10.2765 11.0324
2 2.31295 1.31887 4.42131
2 11.2706 2.31295 11.0324
2 10.2765 11.2706 4.42131
2 11.2706 10.2765 11.0324
2 10.2765 1.31887 4.42131
2 1.31887 2.31295 11.0324
2 2.31295 11.2706 4.42131
1 11.0086 7.83654 8.10972
1 4.75292 11.0086 1.49867
1 1.5809 4.75292 8.10972
1 7.83654 1.5809 1.49867
1 1.5809 7.83654 8.10972
1 7.83654 11.0086 1.49867
1 11.0086 4.75292 8.10972
1 4.75292 1.5809 1.49867
1 1.5809 4.75292 5.11238
1 7.83654 1.5809 11.7234
1 11.0086 7.83654 5.11238
1 4.75292 11.0086 11.7234
1 11.0086 4.75292 5.11238
1 4.75292 1.5809 11.7234
1 1.5809 7.83654 5.11238
1 7.83654 11.0086 11.7234
1 10.1088 10.1088 3.30552
1 2.48067 10.1088 9.91657
1 2.48067 2.48067 3.30552
1 10.1088 2.48067 9.91657
1 2.48067 10.1088 3.30552
1 10.1088 10.1088 9.91657
1 10.1088 2.48067 3.30552
1 2.48067 2.48067 9.91657
1 0 1.60471 1.57853
1 10.9848 0 8.18958
1 0 10.9848 1.57853
1 1.60471 0 8.18958
1 0 10.9848 11.6436
1 1.60471 0 5.03252
1 0 1.60471 11.6436
1 10.9848 0 5.03252
96
 Atoms. Timestep: 2000
2 0.118954 8.37101 4.15984
2 4.25224 12.523 11.6045
2 12.7287 4.97065 4.38468
2 7.75521 0.0561574 12.9711
2 11.9478 3.87344 8.10422
2 8.34849 0.0049963 1.43387
2 0.260943 8.70936 8.40502
2 5.10315 12.3063 1.57616
2 11.5821 7.89324 6.5237
2 5.31951 10.506 13.1132
2 0.637851 4.15006 6.4421
2 9.01705 1.97205 0.167008
2 1.80651 8.02563 6.85712
2 7.51254 12.5494 8.77511
2 10.1349 4.90879 6.7516
2 5.02716 0.714775 -0.286075
2 11.0116 6.57459 4.22903
2 6.64766 11.0105 10.8047
2 1.9048 6.63566 5.12314
2 7.11521 2.41701 11.5278
2 1.6935 5.46963 7.96464
2 6.69835 1.3737 1.86226
2 11.5106 6.13298 8.27718
2 6.92536 10.9697 0.585685
2 11.6701 8.49427 9.76618
2 4.01714 10.0675 2.53204
2 1.32341 3.1896 9.62049
2 8.89076 2.78369 2.64807
2 2.27822 8.31691 9.46844
2 9.71835 11.531 1.11826
2 10.5611 3.53187 9.51516
2 3.73755 1.70558 2.01588
2 1.60363 4.01573 3.74151
2 9.08984 1.25364 10.7478
2 10.7614 9.40533 3.35099
2 3.81906 10.4914 10.889
2 9.45255 3.98363 5.03843
2 3.05792 1.32499 10.8055
2 2.67873 9.23182 4.7499
2 8.79818 10.2026 10.2497
2 0.372038 11.0416 -0.230579
2 1.48891 0.0384412 6.62127
2 0.147544 2.36372 -0.209026
2 10.5769 11.925 6.37715
2 0.103601 -0.0241779 1.57406
2 -0.281782 12.2076 8.00474
2 12.4636 -0.164973 12.2879
2 11.8648 0.904664 5.61887
2 9.49496 1.34019 5.31122
2 10.9918 11.4138 9.40158
2 1.19781 11.1815 2.90751
2 2.20208 0.236242 8.99387
2 1.2075 1.65853 1.99403
2 2.27285 11.1549 9.06899
2 12.0958 10.4143 2.1058
2 10.376 1.16168 8.34937
2 1.42302 10.802 11.2404
2 1.21149 1.66958 4.22445
2 11.4749 1.34176 11.0745
2 10.1394 11.596 4.10508
2 11.7676 10.5685 11.5467
2 7.48376 1.9329 4.53858
2 0.660844 1.3394 10.7862
2 3.74814 11.6778 4.37018
1 11.6459 7.9389 8.16288
1 4.92001 10.711 1.28015
1 0.654242 4.11006 8.33245
1 8.56304 1.56479 1.48788
1 1.82228 7.25189 8.38533
1 8.28773 11.7681 0.29645
1 10.7761 4.86299 8.56484
1 5.29193 0.83953 1.40891
1 1.37572 5.11665 5.06377
1 8.46857 1.42099 12.3726
1 11.4321 8.21117 4.7767
1 4.99204 11.0068 11.7142
1 10.8375 5.10435 4.99587
1 3.61848 0.742493 12.3807
1 1.46418 8.25902 5.3941
1 7.93936 11.6028 10.0897
1 10.6504 10.9593 2.56559
1 2.28716 9.86694 10.3894
1 2.31709 2.22129 2.95373
1 10.1674 2.02387 9.73034
1 2.73826 10.3708 3.5276
1 10.4461 10.0003 10.2845
1 8.94442 2.57038 4.44252
1 1.88849 1.6414 9.6881
1 -0.293468 1.59974 1.36993
1 11.2647 12.422 8.1121
1 0.322535 11.2963 1.45011
1 1.48041 12.1813 8.05483
1 0.192977 11.4657 12.0061
1 0.560928 1.22471 5.92239
1 12.6082 1.51485 12.1081
1 10.099 12.8132 5.24636
96
 Atoms. Timestep: 4000
2 -0.00370193 7.60934 5.15115
2 5.49618 11.8736 12.1048
2 -0.15838 5.18515 5.53835
2 6.90691 10.5381 13.066
2 -0.167111 5.22086 9.27365
2 7.93401 12.3739 1.57174
2 0.112582 8.22444 8.29908
2 4.44646 12.5266 1.22324
2 11.6267 8.87938 5.89183
2 4.5093 10.0435 0.087626
2 1.27772 4.20814 6.81005
2 8.938 1.65319 12.963
2 1.54202 8.2804 6.6205
2 7.27073 7.72811 12.3048
2 10.8304 4.64517 6.27094
2 4.41935 1.12133 -0.0347538
2 10.992 6.66865 4.28355
2 6.42022 9.75285 11.1388
2 2.60972 6.23354 5.33196
2 6.43414 0.992459 11.3624
2 2.27371 6.2734 8.4532
2 6.08753 0.71715 2.89591
2 11.211 6.8227 7.9454
2 5.95749 10.8949 1.9271
2 10.613 9.42154 8.92261
2 2.88955 11.4686 2.21582
2 2.13476 3.39516 9.62086
2 11.5385 2.59635 1.2687
2 2.39573 9.23832 8.93032
2 8.83983 10.11 1.53983
2 10.5744 3.73885 9.16326
2 2.86197 1.30314 2.30063
2 2.03273 4.01652 4.18627
2 9.102 2.0125 11.0066
2 10.5469 8.8191 3.1207
2 3.76729 9.71241 10.8334
2 11.3287 4.05959 3.83141
2 3.62182 1.18432 10.9219
2 1.99812 9.73274 4.53833
2 8.85217 10.1421 10.6214
2 12.9938 11.2861 12.9053
2 1.62954 12.3681 6.96682
2 0.176269 2.10479 13.2924
2 10.1446 -0.184969 6.62715
2 12.727 0.486405 1.01152
2 12.4271 0.588913 8.01387
2 12.0242 -0.134029 11.918
2 12.0368 0.719891 5.49501
2 10.5877 1.96038 4.2726
2 10.289 12.2553 9.60964
2 0.969503 11.1572 2.06844
2 2.0071 1.09367 8.75384
2 1.5477 2.83012 1.93581
2 1.38449 11.1488 9.00763
2 11.3971 11.4577 2.22462
2 11.0934 1.58023 9.28664
2 1.41829 10.0625 11.0797
2 1.32846 1.46526 4.63088
2 11.7343 2.18178 11.7424
2 9.68108 12.3022 3.97274
2 11.9014 10.07 10.4203
2 9.2256 1.84283 1.96828
2 1.61436 1.42567 11.8129
2 0.439651 11.8631 3.88355
1 11.681 8.59657 7.63147
1 4.33374 10.9393 1.49471
1 1.29326 4.52206 8.43133
1 8.82424 0.600388 0.742152
1 1.72752 7.9081 8.09402
1 7.39756 10.8502 1.03084
1 11.2004 5.46561 9.10633
1 4.44585 1.22692 1.71518
1 1.71549 4.96538 5.45602
1 7.90573 2.31656 11.7867
1 11.7616 8.04265 4.43493
1 4.84902 10.2188 11.836
1 11.3857 5.19208 4.8948
1 5.05856 0.488516 12.1352
1 1.85377 7.9099 5.07604
1 7.75166 9.42648 11.9616
1 9.99406 10.5548 2.81263
1 2.46337 10.4114 9.89858
1 2.19575 2.5603 3.49688
1 10.7427 2.62129 10.5273
1 1.69396 10.8804 3.43775
1 10.4025 10.6108 10.0585
1 10.6549 2.77686 2.59935
1 2.36567 1.58075 10.1646
1 0.207144 2.11774 1.19315
1 10.7273 0.336561 8.25678
1 -0.0521284 11.8721 0.814481
1 1.10982 12.5961 8.39101
1 -0.0114552 10.1062 11.8093
1 0.519832 -0.128561 5.28887
1 0.0161421 1.38478 11.9653
1 10.4141 0.365504 5.20154
96
 Atoms. Timestep: 6000
2 0.045965 8.22014 5.02567
2 4.32288 11.9035 11.1621
2 0.162479 5.01369 4.32159
2 8.17992 9.17953 0.137887
2 -0.0626443 4.91164 8.35025
2 5.81555 4.08571 1.39949
2 12.2111 8.10475 8.03876
2 5.59623 12.4506 1.84584
2 10.5501 8.40793 6.06805
2 5.4477 10.3978 13.0391
2 2.20122 4.94134 6.74705
2 7.60553 2.28583 0.619797
2 2.31581 8.38837 6.89397
2 7.99024 7.17176 12.3072
2 10.9629 4.45822 6.29532
2 4.48887 1.35197 13.2236
2 10.9713 6.40897 4.13853
2 5.86247 9.07441 11.3987
2 1.7262 6.57681 4.96134
2 6.73723 0.584955 11.4593
2 1.64939 6.59016 8.72989
2 6.37299 1.91064 2.26522
2 10.4154 6.3473 8.0869
2 6.52182 10.4039 1.73314
2 10.5461 8.91237 9.03997
2 4.23456 9.83128 2.15805
2 2.70537 4.01435 9.33384
2 10.8785 1.63529 2.37922
2 2.12294 9.43316 9.35829
2 9.16817 10.5575 2.59732
2 10.4706 3.63003 9.04937
2 3.69917 1.77718 2.50028
2 2.33312 3.60548 4.03474
2 9.53863 1.80857 11.6984
2 10.7809 8.95966 3.30059
2 3.8203 10.2197 10.0688
2 10.8132 3.59454 4.05987
2 4.29555 1.60608 10.4314
2 2.89076 8.77963 4.46275
2 8.38874 8.92981 10.8457
2 12.7907 10.8528 12.9533
2 1.69452 0.0897032 6.60944
2 12.0403 2.41319 0.0809027
2 9.93538 -0.00508187 6.92758
2 12.5871 0.125371 1.07407
2 12.5997 0.043572 8.22831
2 1.6773 2.52824 13.0513
2 -0.0331512 10.9678 5.2776
2 9.42079 1.43058 4.1633
2 9.48721 11.321 9.2139
2 1.35541 10.9252 2.59468
2 2.714 1.33014 8.55746
2 0.672643 1.86427 2.85815
2 1.99714 11.8609 8.86148
2 11.5481 10.5105 1.95118
2 10.4331 1.11159 9.10866
2 0.661163 11.1644 10.4044
2 1.53855 1.11088 4.63758
2 11.4017 3.27132 10.9941
2 10.4102 11.7495 4.32212
2 10.5124 10.8798 10.9259
2 8.72065 3.64532 2.38881
2 1.70491 2.67549 11.0219
2 2.73215 11.1897 4.17423
1 10.795 7.84458 7.8295
1 5.02454 11.0641 0.965787
1 1.77857 4.9474 8.19999
1 7.25305 3.41521 1.59739
1 1.23215 8.38161 8.2862
1 7.94608 10.1241 1.48234
1 11.3851 4.66847 7.80575
1 4.77187 1.15371 1.49242
1 1.64893 4.75474 5.08504
1 7.77263 1.96324 12.0357
1 11.2292 8.1936 4.55502
1 4.98091 10.2427 11.277
1 11.3887 4.9037 4.76286
1 5.0314 0.769832 11.7541
1 1.54874 8.10382 5.33306
1 7.62448 8.67388 12.1813
1 10.6252 10.718 3.11322
1 2.20965 10.6829 10.0902
1 2.36382 1.97907 3.63124
1 10.4468 2.21374 10.1028
1 2.8765 9.938 3.12775
1 9.6756 9.57545 10.2322
1 9.9974 2.76514 3.04891
1 3.15511 2.41141 9.74368
1 12.3756 1.57366 1.60059
1 10.9567 12.4483 8.23514
1 0.124059 11.4319 1.31474
1 1.43288 0.216914 8.05207
1 11.8379 11.1348 11.4929
1 1.39582 12.2234 5.05095
1 0.118229 3.04164 12.1926
1 10.1345 0.199092 5.40224
96
 Atoms. Timestep: 8000
2 -0.178785 8.34797 5.71188
2 4.6285 -0.162862 11.3544
2 12.6063 3.63016 5.01772
2 8.57035 9.61641 13.4143
2 0.418194 5.44438 8.70416
2 7.02005 4.32128 0.349103
2 0.0141699 7.90321 8.83528
2 4.93881 12.8368 1.05254
2 11.1662 8.15088 7.25306
2 5.25457 11.2035 12.6153
2 2.23959 4.70854 6.55524
2 8.05335 2.80024 12.9955
2 1.47591 8.3686 6.99728
2 7.116 8.6704 11.7125
2 10.5812 5.00008 6.89769
2 4.5113 1.98746 13.0712
2 10.7053 6.18142 4.92388
2 7.28079 10.9863 10.9671
2 1.51237 6.36839 5.24819
2 6.16916 2.89305 11.1959
2 2.21302 6.47087 8.94289
2 6.31894 2.04642 1.40626
2 10.8896 6.63148 9.18076
2 6.26241 10.521 0.888911
2 11.3421 9.22886 10.0801
2 3.9075 10.7065 2.0849
2 2.24824 3.11925 8.83906
2 10.8636 1.55071 1.78936
2 2.20842 8.8549 9.38355
2 9.06406 9.43103 2.56689
2 11.0124 3.79677 8.69096
2 3.6058 2.02913 2.01474
2 1.97043 3.66256 3.80319
2 8.85311 3.84991 10.0646
2 10.0462 8.67741 4.86684
2 4.43793 10.1986 10.5656
2 9.81516 3.32932 4.79406
2 3.58997 1.91295 10.3094
2 1.63917 9.1456 3.44611
2 9.66831 9.99914 10.8713
2 12.4413 10.2906 0.220573
2 0.66348 11.74 6.58481
2 12.0737 2.02129 -0.356538
2 11.4267 12.5142 6.26665
2 12.6059 -0.0370621 1.91613
2 12.4688 11.618 8.45989
2 11.8039 4.00533 11.8506
2 0.00108053 0.397059 4.73011
2 9.9805 1.22269 4.28665
2 10.1956 12.0817 9.49584
2 1.44007 10.6344 1.73694
2 1.73358 0.132241 8.65256
2 0.929349 2.06814 2.18244
2 1.71217 10.7984 9.72227
2 10.9496 10.2834 2.36483
2 10.1077 0.889127 8.37273
2 1.88339 9.82162 12.0142
2 2.29628 0.21379 4.37715
2 11.4503 1.80418 10.4961
2 9.57397 11.3836 4.5624
2 12.5215 10.1355 11.4375
2 8.40604 2.94478 2.11264
2 0.846537 2.3333 10.6377
2 2.38767 10.9428 4.69479
1 11.4299 8.06182 9.09274
1 4.72087 11.0914 0.547523
1 2.08162 4.73406 8.04259
1 7.46886 2.96378 0.986862
1 1.63986 7.78376 8.40377
1 7.9619 10.0336 1.38672
1 11.6746 5.37809 8.27784
1 4.68232 1.61256 1.23832
1 1.37629 4.33114 5.11724
1 7.7716 3.51676 11.4954
1 11.286 7.62191 5.70227
1 5.59365 11.325 11.0691
1 10.8954 4.40843 5.15395
1 4.86567 1.46878 11.3884
1 1.43922 8.27076 5.12519
1 8.26367 9.83491 11.6197
1 10.1137 9.96296 3.72951
1 2.8624 9.88287 10.5933
1 2.28681 1.76211 3.04018
1 10.2111 2.30355 9.40347
1 2.46689 10.608 3.03831
1 11.2004 10.869 10.5853
1 9.86232 2.40217 3.29293
1 1.89223 1.64894 9.68171
1 12.6334 1.46381 1.27747
1 11.0928 12.643 7.92928
1 12.4173 11.2126 1.6925
1 1.10483 11.5398 8.36642
1 0.358444 10.2072 12.5631
1 1.23827 12.3049 5.14756
1 12.5292 2.49184 11.6439
1 10.1177 12.6844 5.19885
96
 Atoms. Timestep: 10000
2 -0.122653 7.75911 4.88089
2 4.15925 -0.139254 11.8249
2 12.2442 4.93463 5.45843
2 7.50125 0.0972632 11.2143
2 12.4219 4.22556 7.71942
2 7.13103 4.07118 1.9811
2 12.529 8.25412 8.42577
2 5.19829 12.419 1.91446
2 10.1533 8.08402 6.66744
2 4.52441 10.72 0.361439
2 1.21684 4.19972 6.43773
2 7.54853 2.19045 12.9711
2 1.77436 8.09534 6.18039
2 7.94801 10.3681 12.7437
2 10.3951 4.39936 6.05758
2 3.95678 1.56666 0.46455
2 10.5924 6.46606 4.53631
2 6.00348 11.8345 12.1727
2 1.87017 5.9643 4.36268
2 5.3898 1.95296 11.5141
2 1.29642 6.13648 8.22782
2 5.74921 2.02017 1.57578
2 11.2642 5.9855 8.23319
2 6.9417 10.7097 1.27069
2 10.3602 9.15058 8.86929
2 4.93955 9.8552 2.9182
2 1.70562 4.02392 9.64741
2 11.467 2.02894 1.57302
2 2.26542 8.79681 9.40014
2 10.1156 9.94403 2.0791
2 10.0765 3.50556 8.35098
2 3.07439 1.29047 2.58472
2 1.33813 3.14293 4.11312
2 7.87244 2.17641 10.3533
2 11.328 9.25298 4.76854
2 3.61274 10.1309 11.3489
2 10.933 3.89802 3.29663
2 2.88555 2.14443 11.3044
2 2.52447 8.77504 3.78865
2 8.83138 10.55 10.388
2 0.982691 11.1102 0.179767
2 2.73633 11.5253 7.06486
2 -0.0045744 2.04963 13.093
2 11.4801 -0.0803231 6.60674
2 12.6423 12.4818 1.23624
2 0.344574 0.171286 8.61402
2 12.3584 0.298926 11.4279
2 1.7894 0.432242 6.80196
2 10.2135 1.47775 4.63232
2 10.5865 11.4645 8.68643
2 2.34726 10.6315 2.33789
2 2.67632 1.15515 8.79168
2 1.31713 2.18725 1.49231
2 2.26711 11.394 9.51428
2 12.0704 10.4994 2.25933
2 10.4528 1.27016 8.77182
2 1.29201 10.5396 11.4156
2 1.17415 0.450487 3.93701
2 10.8963 2.37917 10.9377
2 10.5772 11.5405 4.53866
2 11.6714 10.8651 11.3331
2 8.89842 1.94932 2.14661
2 0.518271 1.98789 10.0123
2 3.07708 11.4446 4.63939
1 10.6834 7.77582 8.0657
1 5.44885 10.6475 1.62339
1 1.24255 4.68542 8.04305
1 7.60622 2.31731 1.30968
1 1.55714 7.80617 8.07538
1 8.63471 10.3843 0.977272
1 10.9636 4.50349 7.57746
1 4.55071 0.992425 1.79195
1 1.14755 4.69883 4.86883
1 6.96381 1.46604 11.7699
1 11.1969 7.80505 5.33524
1 4.61778 11.1415 12.0876
1 11.0064 4.74288 4.68091
1 4.02766 1.42641 12.1989
1 1.60761 7.73902 4.71107
1 7.37628 11.175 11.4207
1 10.8533 10.2127 3.45374
1 2.37901 10.0828 10.4306
1 1.54195 1.71855 3.27253
1 9.70263 2.14066 9.80214
1 3.1886 10.2822 3.52058
1 10.5137 10.2372 9.91926
1 10.507 2.25666 3.02372
1 2.06207 2.39687 10.0503
1 0.0747879 1.2835 1.0172
1 11.4434 0.0240208 8.35364
1 0.601924 11.159 1.85925
1 1.73902 12.6736 8.20661
1 0.13001 11.2957 12.2134
1 2.06668 12.6689 5.2575
1 12.2328 1.85027 11.5461
1 10.6428 0.136517 5.4632
96
 Atoms. Timestep: 12000
2 12.1999 7.95091 4.90148
2 4.44372 12.6824 11.5213
2 12.0839 4.83418 5.74588
2 8.20117 0.41587 12.2259
2 12.4458 4.56282 8.9729
2 6.84482 4.04545 0.567981
2 12.3378 7.91949 8.58387
2 4.81607 -0.116613 0.928226
2 10.3164 8.15881 7.26538
2 5.24546 10.8739 -0.168455
2 1.48871 4.38731 7.20671
2 8.10499 2.42341 13.0089
2 1.609 7.47795 6.67822
2 7.87847 11.5059 0.330059
2 10.1457 5.03622 6.91031
2 4.3772 1.64702 12.6955
2 10.0745 6.81623 5.27346
2 6.47822 11.188 11.5369
2 1.48148 6.34277 4.8712
2 6.77344 1.64326 10.3191
2 1.29054 6.09365 8.46813
2 5.9899 1.82139 1.11923
2 10.6767 6.63018 8.77716
2 6.77639 11.297 2.04745
2 9.84294 9.5316 9.19214
2 4.01744 10.8481 2.81414
2 2.14969 2.79749 9.02709
2 11.3155 1.9998 2.14338
2 1.59378 9.39514 9.08416
2 8.58264 10.6093 2.98224
2 10.3864 3.50608 9.35244
2 2.94314 2.01796 1.93492
2 1.65242 3.14145 4.62474
2 9.09102 1.81248 10.068
2 10.1661 9.07197 4.58729
2 3.31959 10.547 11.099
2 10.2742 3.50379 4.58727
2 4.15027 1.29163 9.93509
2 1.45691 9.06021 3.97154
2 8.69195 11.3595 10.8588
2 12.6534 10.1423 0.00303183
2 1.36 9.56484 6.23725
2 12.6463 1.4137 13.1569
2 12.1191 0.490348 6.28493
2 12.2263 -0.143057 2.04162
2 0.6338 12.3766 7.34063
2 12.5271 12.3482 11.9479
2 3.31687 11.731 6.24937
2 -0.0190894 1.06741 3.76601
2 10.9938 11.7135 8.5736
2 1.08223 10.6668 2.28873
2 2.8106 12.6052 10.3625
2 0.886351 1.68626 1.77105
2 2.4978 11.1927 8.23347
2 11.0886 10.5469 2.4004
2 11.4251 1.05381 8.88195
2 1.24955 10.5502 11.1819
2 2.40195 0.686855 4.13864
2 11.8865 2.14791 10.8407
2 10.3722 11.3541 4.84371
2 10.9988 11.2613 11.2222
2 8.72719 2.38105 2.01138
2 1.11264 0.777184 10.474
2 2.49825 11.6014 4.14244
1 10.6614 8.29033 8.70881
1 5.21374 11.3465 1.78249
1 1.09625 4.41225 8.70514
1 7.53811 2.5945 0.99665
1 1.01143 7.72427 8.42668
1 8.17477 12.1057 1.73012
1 10.7088 4.96784 8.81305
1 4.41774 1.49579 0.74015
1 1.01174 4.50931 5.50795
1 8.15062 1.9676 11.2337
1 10.7283 8.14893 5.78987
1 4.77231 11.129 11.8681
1 10.3579 5.08206 5.25801
1 5.21481 1.03893 11.2098
1 1.08369 8.00787 5.20818
1 7.83341 11.5766 12.1561
1 9.98734 10.4406 3.63024
1 2.32467 10.5857 9.80138
1 1.48752 1.80062 3.328
1 10.5141 2.03947 9.63807
1 2.35383 10.0672 3.28263
1 10.2395 10.9109 9.74664
1 10.2051 2.25732 3.04881
1 2.56299 1.31171 9.50218
1 12.3564 1.36734 1.33082
1 12.0334 0.0653447 7.962
1 12.4089 10.9749 1.50323
1 1.49907 11.1597 6.7401
1 12.6159 10.5786 12.0642
1 3.58758 12.6327 4.77825
1 0.0372368 1.10331 11.6551
1 11.8738 -0.0136471 4.64589
96
 Atoms. Timestep: 14000
2 12.3328 7.48202 5.36349
2 5.42741 12.8201 12.4834
2 12.3054 4.60106 4.17075
2 8.75943 0.497498 12.1407
2 12.3118 4.01032 7.81962
2 7.42143 4.90714 1.28801
2 12.1195 7.9371 8.77911
2 5.36686 0.0873169 1.70621
2 10.7233 7.09294 6.53012
2 4.73938 11.1681 0.0334276
2 0.852016 4.9936 6.28695
2 8.21518 2.57231 0.293343
2 1.05446 7.85032 6.85563
2 8.59533 10.7818 -0.50835
2 10.036 4.21434 6.58941
2 4.00484 1.45232 0.129212
2 10.4133 5.73617 4.0793
2 7.09718 10.8511 11.2656
2 1.47627 6.59611 5.11265
2 6.36521 1.71957 12.4026
2 1.24182 6.07571 8.98169
2 5.77397 2.15997 1.50347
2 10.56 6.28968 8.63457
2 6.7424 11.159 2.02418
2 10.1564 8.92019 8.98698
2 3.62948 10.7905 2.41872
2 2.36591 3.14423 8.56043
2 10.4896 1.08541 1.18259
2 2.0989 8.74517 9.2475
2 9.50495 11.0281 2.66008
2 10.0117 3.60999 8.9182
2 2.98404 1.79525 3.02388
2 0.967222 3.17388 4.71157
2 8.87507 2.68905 10.8553
2 10.2198 8.66371 4.02157
2 4.62942 11.2864 10.4838
2 10.1454 2.8215 4.26407
2 3.79707 1.92246 10.9642
2 2.26442 9.20056 4.79378
2 9.70675 11.2451 10.5839
2 0.841695 10.6411 -0.176234
2 0.529975 9.73664 7.56799
2 -0.224311 1.39596 12.7745
2 11.568 0.0134465 6.32306
2 12.0024 12.0151 0.84781
2 -0.277274 12.3797 8.30763
2 0.24222 12.4519 10.8714
2 1.95301 12.0591 6.80162
2 12.2465 1.54024 3.94868
2 10.4637 11.7006 8.59065
2 1.15741 10.8925 2.59694
2 2.30086 0.539194 9.91829
2 0.331427 1.51058 1.77729
2 2.59758 11.0875 8.70742
2 11.8063 10.7253 2.63828
2 10.5404 0.924455 9.05659
2 2.11747 10.9263 11.2757
2 1.9063 1.25187 4.68874
2 11.4219 2.28539 10.4044
2 10.4529 11.7939 4.47223
2 12.263 10.5996 10.1654
2 8.52466 2.75126 2.4906
2 1.00002 2.07177 10.3161
2 2.73561 11.8884 4.3744
1 10.5859 7.81437 8.00313
1 5.04609 11.3712 1.75793
1 1.09162 4.42551 7.84744
1 7.14308 3.19358 1.69444
1 0.803298 7.86499 8.80807
1 8.21157 11.1802 1.36846
1 10.7528 4.61555 8.03467
1 4.29608 1.36133 2.11569
1 1.17536 4.99617 4.7713
1 8.27819 2.15392 12.259
1 10.8759 7.27201 4.81766
1 5.52476 11.2012 11.9715
1 10.7484 4.1578 4.91983
1 4.68604 1.24346 12.1872
1 0.929757 8.0388 5.03358
1 8.49826 11.3959 11.5669
1 10.6605 10.2365 3.55317
1 3.05975 11.8477 10.2318
1 1.36614 1.79067 3.35228
1 9.84255 2.18574 9.68934
1 2.37949 10.3824 3.4969
1 10.7095 10.3553 9.43337
1 9.76216 1.89802 2.50438
1 2.52726 2.24916 9.88977
1 12.0706 0.982389 0.712302
1 11.236 -0.162089 7.72358
1 0.14014 10.7149 1.35695
1 1.22795 11.1462 8.01691
1 0.501903 10.6994 11.7795
1 2.40829 0.00126189 5.35275
1 12.7185 1.304 11.1831
1 11.3645 0.280278 4.78717
96
 Atoms. Timestep: 16000
2 12.0932 7.67582 4.96845
2 4.46899 0.349309 11.7249
2 12.0918 4.95722 5.12238
2 8.01953 12.0333 12.3968
2 0.0866734 4.23997 8.55612
2 6.23007 3.17218 13.0618
2 12.8981 8.39752 8.09167
2 4.13454 0.186808 0.557289
2 10.8346 8.18621 7.00454
2 4.42521 10.9942 12.9449
2 1.26882 5.00312 6.54296
2 8.32812 1.57417 0.0843551
2 1.82263 7.62923 6.51351
2 8.00837 9.88151 1.32756
2 10.0655 4.22189 6.95599
2 4.05624 2.13925 13.0803
2 10.0735 6.20921 5.66095
2 6.27307 10.547 11.4866
2 1.44446 6.5284 4.61994
2 6.67751 1.2206 11.7477
2 1.10518 6.03049 8.72358
2 5.68505 2.59044 1.7633
2 10.8136 5.85653 8.59084
2 5.82813 11.8837 2.43908
2 10.539 8.53796 9.81817
2 3.45677 10.862 2.11349
2 3.05283 3.75561 8.39562
2 10.5129 2.72943 1.77516
2 1.81624 8.25386 9.89994
2 8.65843 10.5317 3.61699
2 10.3976 3.05387 9.23101
2 2.6702 2.14041 2.48034
2 1.50963 3.81822 4.28259
2 8.9806 1.89119 10.775
2 10.6554 9.45859 4.75096
2 4.83153 11.6291 9.79046
2 9.64453 3.27276 4.41354
2 4.19831 3.00576 11.0806
2 1.65454 8.73771 3.42298
2 8.91286 10.0579 10.9409
2 12.4083 11.2644 13.3077
2 1.85674 9.61553 8.22211
2 12.7095 1.76912 13.0373
2 11.8454 -0.269992 6.5589
2 12.129 0.134117 1.54588
2 0.443949 12.0008 8.00041
2 0.429997 12.3539 11.5501
2 1.15415 10.0321 5.83562
2 -0.196439 1.7299 4.49747
2 11.0674 11.2421 9.20726
2 0.902392 10.7291 2.4679
2 3.96483 0.984891 8.59047
2 0.40131 2.41127 2.11626
2 2.7503 12.0747 6.91562
2 11.1811 10.7245 2.43867
2 10.4681 0.297171 8.66838
2 1.4168 9.22767 10.915
2 2.15424 1.17598 4.3869
2 11.9915 1.41274 10.6557
2 10.8833 12.2193 3.96111
2 11.997 10.5914 11.1303
2 7.90399 2.96043 2.31931
2 1.48287 2.4438 10.3495
2 2.88235 11.1008 4.49188
1 10.9586 7.73664 8.43095
1 4.46965 11.6305 1.15274
1 1.64394 4.44277 8.03135
1 7.21546 2.47456 0.926406
1 1.71544 7.8507 8.30365
1 7.25601 10.8013 2.73798
1 10.9683 4.26663 8.36608
1 3.92027 1.8155 1.26349
1 0.892215 5.16619 4.90295
1 8.16427 1.01543 12.1156
1 10.5511 7.80212 5.63105
1 4.50207 11.3806 11.4856
1 10.3158 4.67759 5.26874
1 5.31812 2.00938 11.9467
1 1.16809 8.23926 4.9574
1 7.82125 10.386 12.0343
1 10.2962 10.7812 3.71071
1 3.93055 12.1287 8.29469
1 1.3083 2.45839 3.51569
1 10.3298 1.56282 10.1164
1 2.43805 10.2342 3.07926
1 10.63 9.96381 10.4564
1 9.39402 3.12762 2.76523
1 3.2201 2.43825 9.47629
1 11.7818 1.80247 1.02543
1 11.7097 12.1223 8.01858
1 12.3755 11.263 1.4283
1 1.44039 10.8901 7.27829
1 0.534307 10.3477 11.9601
1 2.80498 -0.122164 5.0847
1 0.629838 1.30494 11.568
1 11.961 0.226394 5.08687
96
 Atoms. Timestep: 18000
2 0.172899 8.63853 4.71905
2 4.91981 0.695763 11.2013
2 -0.0627708 4.74903 5.32245
2 7.21083 0.226039 12.4988
2 11.7603 4.06431 8.65579
2 4.11785 3.66919 12.4237
2 11.8849 8.19891 8.08637
2 4.3005 12.3805 1.51388
2 10.4653 8.79834 6.504
2 4.75602 11.3816 12.8361
2 1.5596 3.92308 6.66073
2 8.65889 2.48034 0.0582327
2 1.62161 7.51827 6.92632
2 7.96304 10.4035 13.2052
2 10.3384 4.28258 6.35997
2 4.72775 2.11628 0.0367785
2 11.245 6.8465 5.08869
2 6.31704 11.0922 11.568
2 1.51487 6.52916 4.58041
2 6.17451 2.46911 11.9476
2 0.361188 5.91957 8.66789
2 7.22534 3.77217 2.55154
2 9.72092 5.81781 8.28472
2 6.69517 10.5948 1.58519
2 9.81557 9.42489 9.15065
2 4.28964 9.91908 2.03976
2 1.32721 3.17684 9.25332
2 11.783 2.74963 1.6563
2 0.965614 7.75183 10.1028
2 9.80306 10.242 1.78826
2 9.61359 2.84374 9.16056
2 4.09645 2.04379 2.8585
2 1.49761 3.37517 4.12275
2 8.7452 1.85227 11.2038
2 11.3067 10.0557 4.10234
2 4.25043 11.9284 9.63872
2 11.5137 5.29199 3.55367
2 3.16515 2.21546 10.9612
2 3.08904 9.09692 4.69194
2 9.19623 11.187 11.0359
2 -0.264188 9.55758 13.1588
2 0.765 9.48489 8.81408
2 12.3911 0.144801 0.41239
2 10.9036 0.900571 6.5761
2 11.2557 0.0902176 2.2377
2 0.0605592 12.1605 7.70403
2 11.7017 11.198 11.9653
2 2.23619 9.84175 6.85185
2 12.4127 1.90018 4.32884
2 10.4197 11.5979 8.29339
2 2.18961 9.59573 2.0116
2 2.44737 0.731962 9.09266
2 1.30994 1.44448 1.99789
2 2.8291 12.4042 6.8906
2 12.159 9.85612 2.13185
2 10.4393 0.641691 9.2544
2 1.15686 8.95525 11.1192
2 2.02361 1.1717 4.95064
2 10.8451 0.536739 11.4237
2 11.5229 12.0973 4.42266
2 11.39 10.3276 10.1485
2 9.69727 3.93435 2.27277
2 0.43024 1.00102 11.0905
2 2.71509 11.5568 4.54022
1 10.3241 7.7203 8.01286
1 4.99792 10.7611 1.05705
1 0.808099 4.30345 8.13333
1 8.59835 3.07305 1.70892
1 0.555371 7.61959 8.43775
1 8.29926 10.3532 1.1979
1 10.0267 4.0704 8.23882
1 4.3744 1.31463 1.33255
1 1.42625 4.58341 5.03609
1 7.81603 1.64953 12.5058
1 11.4397 8.79112 5.21059
1 4.82371 11.7471 11.1831
1 11.3842 5.39516 5.7244
1 4.56303 2.13085 11.8303
1 1.93239 8.35349 5.49441
1 7.62913 11.4135 12.05
1 10.9603 11.1349 2.71406
1 3.12325 12.2049 8.48703
1 2.26399 1.96619 3.47259
1 10.1062 1.70545 10.2555
1 3.15728 10.1615 3.17237
1 10.1452 11.018 9.67624
1 11.2108 3.96099 2.50257
1 1.74213 1.78541 10.4022
1 12.3813 1.37873 1.5522
1 11.2871 0.182985 7.79787
1 0.624739 9.54979 1.13675
1 1.29317 10.7599 8.00282
1 12.7158 10.0596 11.411
1 1.7808 12.4412 5.6175
1 12.1667 0.0665621 12.1694
1 11.2929 0.920063 5.06078
96
 Atoms. Timestep: 20000
2 -0.155313 8.61658 4.87127
2 5.15952 1.04222 11.0434
2 11.9152 4.48075 5.65465
2 8.71611 0.290268 12.4754
2 12.4622 5.00479 9.15549
2 5.57436 12.2772 8.35068
2 12.1255 8.22837 7.99074
2 4.6489 11.8367 2.0748
2 10.9223 7.33361 6.08881
2 4.525 10.9489 12.5931
2 1.76607 4.77657 7.00208
2 9.22126 2.9277 0.686441
2 1.77974 8.10425 6.72601
2 8.14276 10.1927 12.7203
2 10.8329 5.22013 7.25074
2 5.23884 2.1492 0.223882
2 10.8136 6.26385 4.37122
2 6.42819 11.2026 11.6389
2 1.38538 6.24606 5.11936
2 7.30399 2.3239 11.3801
2 1.64583 6.94967 8.85596
2 10.8222 2.6781 2.14094
2 9.77607 6.64739 8.38811
2 6.50055 10.2333 1.56495
2 8.95112 8.94836 8.32445
2 4.42301 9.57635 2.35893
2 2.38774 3.53742 9.11197
2 9.46369 0.813141 5.62058
2 1.19553 9.42383 9.83606
2 9.3148 10.456 2.56661
2 10.5296 3.9211 9.40111
2 3.48288 2.09475 2.37962
2 1.97782 3.91845 4.08041
2 9.92454 1.65975 10.5268
2 10.4815 8.8554 3.81396
2 4.37731 11.2017 9.84691
2 9.21424 3.88318 5.24298
2 4.57823 3.25872 10.603
2 2.79936 8.37868 4.42307
2 8.19636 11.3273 10.053
2 11.5583 9.85979 12.1208
2 1.06646 10.2472 7.81795
2 11.9496 1.30722 0.576158
2 8.20653 11.2243 6.95135
2 11.3012 12.1239 2.93423
2 11.597 12.1172 7.41925
2 12.1568 12.5873 11.7811
2 0.986819 11.9374 5.53802
2 9.86857 9.21339 6.2769
2 9.3089 0.0998868 8.52108
2 1.58408 9.62722 2.07204
2 3.65802 1.25357 9.11064
2 1.19329 1.78497 2.81202
2 3.39536 11.8125 6.85441
2 11.2252 9.33584 1.78842
2 11.6125 1.62025 8.44779
2 0.572988 10.7744 10.4338
2 3.35892 1.01873 4.48624
2 12.1528 2.59303 11.0114
2 10.3143 10.7245 4.68896
2 10.2946 11.3676 10.1251
2 8.22946 3.11107 3.39299
2 2.17734 1.88802 11.7088
2 2.80413 11.2418 3.98775
1 10.4284 8.09896 7.55652
1 5.05859 10.4198 1.2544
1 1.54831 5.13917 8.6923
1 9.18608 3.35296 2.16947
1 1.39493 8.5358 8.44114
1 8.17989 10.432 1.42724
1 10.908 5.36851 8.87024
1 4.61789 1.3278 1.56192
1 1.30308 4.69341 5.44588
1 9.00202 1.75831 11.9685
1 10.9348 7.706 4.60368
1 4.9777 11.7995 11.2648
1 10.3471 5.03182 5.28167
1 5.58154 2.64278 11.6891
1 1.39228 7.90191 5.08497
1 7.83783 11.2431 11.7501
1 11.0208 10.0498 3.12295
1 4.01254 12.0731 8.40209
1 2.41094 2.30462 3.63403
1 11.1569 2.52208 9.79501
1 3.03208 9.66891 3.46409
1 9.04285 10.6605 8.78626
1 8.6934 2.44166 4.98949
1 3.21525 2.52803 10.1867
1 11.8689 1.11542 2.3331
1 10.2718 0.748929 7.2346
1 0.147871 9.56688 0.746315
1 0.323099 11.1535 6.66751
1 11.2961 11.2265 11.2433
1 2.80436 12.175 5.40582
1 0.453989 1.68898 12.1156
1 9.27433 10.5975 5.608
96
 Atoms. Timestep: 22000
2 12.7562 7.0185 3.77323
2 5.31438 1.52492 11.5731
2 12.0271 4.26473 5.03327
2 7.90219 0.408736 12.2631
2 12.0667 4.94807 9.01617
2 6.26899 0.889025 8.01348
2 11.6211 7.75712 7.68528
2 4.87991 1.3055 2.10316
2 8.33561 7.41296 7.59368
2 4.43608 11.7907 0.229481
2 1.44925 4.23029 6.66239
2 8.93468 2.11955 1.3152
2 1.70431 8.16039 6.33105
2 7.67698 10.8784 12.9209
2 10.3781 2.60808 6.31202
2 4.28143 3.18536 0.0377374
2 10.415 5.01514 3.83091
2 6.09055 11.3886 11.0192
2 2.27442 5.63752 4.49311
2 7.10213 3.12105 11.9726
2 1.39692 6.66927 7.79523
2 10.8129 0.812344 1.96995
2 10.1768 6.6318 9.84388
2 6.62985 11.4501 2.12834
2 9.93866 9.24453 8.75441
2 4.76185 10.6296 2.95223
2 2.35693 4.75616 8.74443
2 9.01273 1.16182 6.30097
2 1.18754 9.35063 9.0396
2 8.97691 11.0706 2.41569
2 9.88188 3.99021 9.73295
2 2.91666 2.73436 2.49275
2 1.53448 3.01049 4.6077
2 9.49776 1.87044 11.4993
2 10.136 8.26909 2.91837
2 4.41583 12.0749 9.78768
2 8.72314 3.69709 5.86934
2 3.8458 3.74066 10.8485
2 2.67315 8.54142 3.59472
2 8.81362 11.0624 10.2864
2 1.18855 9.6174 13.0866
2 12.8669 9.69951 6.8007
2 12.4171 2.17545 12.9296
2 8.71573 10.8228 7.16555
2 0.760996 12.0686 0.754842
2 11.5804 12.4208 6.37293
2 1.27313 12.2254 11.6022
2 1.79269 11.7083 6.39524
2 9.85419 8.69591 6.58781
2 9.52619 12.3673 8.10498
2 2.35465 10.6921 2.39494
2 3.9271 2.32505 8.68189
2 1.19406 0.845969 2.34496
2 3.77876 0.116548 7.58475
2 11.715 10.3642 2.36506
2 10.4372 2.01125 8.50482
2 1.52804 9.27793 10.5133
2 3.37901 0.912786 4.40271
2 11.6979 2.05285 10.4977
2 9.88993 10.7291 4.50223
2 11.5325 10.6453 12.0822
2 8.28774 1.93576 3.96289
2 2.01252 2.47963 10.0633
2 3.82874 10.8204 4.96905
1 9.89266 7.64046 8.16442
1 4.9568 11.6354 1.75851
1 0.930429 5.21662 8.13525
1 9.03277 1.25838 2.7506
1 0.922205 8.34211 7.87123
1 7.81059 10.5257 1.56457
1 10.8221 5.21035 9.91062
1 4.24503 2.55326 1.47081
1 1.37603 4.46354 5.14492
1 8.39757 2.12232 12.5278
1 10.8354 6.60172 3.74439
1 4.68189 12.3594 11.6338
1 10.6068 4.0652 5.32299
1 5.32792 3.09924 11.7538
1 1.96374 7.37895 4.81924
1 7.54123 11.4523 11.4791
1 10.2164 10.0107 2.88158
1 4.69825 0.803772 8.65287
1 2.19067 1.71709 3.52446
1 10.1973 2.37345 9.97691
1 3.40692 9.85555 3.59365
1 9.11481 10.6182 8.7138
1 7.89921 2.00527 5.65206
1 3.04987 3.42651 9.50028
1 12.1599 1.04393 1.03225
1 10.4801 1.18235 7.08064
1 0.886259 10.4769 1.70596
1 0.298416 11.2892 6.32658
1 0.964633 10.4903 11.7062
1 3.23863 12.5152 5.93992