96
 Atoms. Timestep: 0
2 0 7.95642 4.74695
2 4.63304 0 11.358
2 0 4.63304 4.74695
2 7.95642 0 11.358
2 0 4.63304 8.47514
2 7.95642 0 1.8641
2 0 7.95642 8.47514
2 4.63304 0 1.8641
2 10.7421 8.43088 6.61105
2 4.15858 10.7421 0
2 1.84736 4.15858 6.61105
2 8.43088 1.84736 0
2 1.84736 8.43088 6.61105
2 8.43088 10.7421 0
2 10.7421 4.15858 6.61105
2 4.15858 1.84736 0
2 10.5201 6.29473 5.04003
2 6.29473 10.5201 11.6511
2 2.06934 6.29473 5.04003
2 6.29473 2.06934 11.6511
2 2.06934 6.29473 8.18207
2 6.29473 2.06934 1.57102
2 10.5201 6.29473 8.18207
2 6.29473 10.5201 1.57102
2 10.1594 8.65935 9.20274
2 3.93011 10.1594 2.59169
2 2.43004 3.93011 9.20274
2 8.65935 2.43004 2.59169
2 2.43004 8.65935 9.20274
2 8.65935 10.1594 2.59169
2 10.1594 3.93011 9.20274
2 3.93011 2.43004 2.59169
2 2.43004 3.93011 4.01936
2 8.65935 2.43004 10.6304
2 10.1594 8.65935 4.01936
2 3.93011 10.1594 10.6304
2 10.1594 3.93011 4.01936
2 3.93011 2.43004 10.6304
2 2.43004 8.65935 4.01936
2 8.65935 10.1594 10.6304
2 0 10.703 0
2 1.88643 0 6.61105
2 0 1.88643 0
2 10.703 0 6.61105
2 0 0 1.872
2 0 0 8.48305
2 0 0 11.3501
2 0 0 4.73905
2 11.2706 2.31295 2.18973
2 10.2765 11.2706 8.80078
2 1.31887 10.2765 2.18973
2 2.31295 1.31887 8.80078
2 1.31887 2.31295 2.18973
2 2.31295 11.2706 8.80078
2 11.2706 10.2765 2.18973
2 10.2765 1.31887 8.80078
2 1.31887 10.2765 11.0324
2 2.31295 1.31887 4.42131
2 11.2706 2.31295 11.0324
2 10.2765 11.2706 4.42131
2 11.2706 10.2765 11.0324
2 10.2765 1.31887 4.42131
2 1.31887 2.31295 11.0324
2 2.31295 11.2706 4.42131
1 11.0086 7.83654 8.10972
1 4.75292 11.0086 1.49867
1 1.5809 4.75292 8.10972
1 7.83654 1.5809 1.49867
1 1.5809 7.83654 8.10972
1 7.83654 11.0086 1.49867
1 11.0086 4.75292 8.10972
1 4.75292 1.5809 1.49867
1 1.5809 4.75292 5.11238
1 7.83654 1.5809 11.7234
1 11.0086 7.83654 5.11238
1 4.75292 11.0086 11.7234
1 11.0086 4.75292 5.11238
1 4.75292 1.5809 11.7234
1 1.5809 7.83654 5.11238
1 7.83654 11.0086 11.7234
1 10.1088 10.1088 3.30552
1 2.48067 10.1088 9.91657
1 2.48067 2.48067 3.30552
1 10.1088 2.48067 9.91657
1 2.48067 10.1088 3.30552
1 10.1088 10.1088 9.91657
1 10.1088 2.48067 3.30552
1 2.48067 2.48067 9.91657
1 0 1.60471 1.57853
1 10.9848 0 8.18958
1 0 10.9848 1.57853
1 1.60471 0 8.18958
1 0 10.9848 11.6436
1 1.60471 0 5.03252
1 0 1.60471 11.6436
1 10.9848 0 5.03252
96
 Atoms. Timestep: 2000
2 12.307 8.30483 4.24201
2 4.18709 12.835 11.7016
2 0.332492 3.3336 5.07289
2 7.54483 -0.12397 11.6095
2 12.5672 5.46686 9.30004
2 8.09405 12.3421 2.45995
2 -0.28678 8.61405 8.35625
2 4.82106 12.0037 1.14549
2 10.8855 7.93834 6.51099
2 4.07231 10.6817 12.7574
2 1.26492 4.50944 7.58582
2 8.0997 1.94676 -0.184609
2 1.10158 7.74387 6.59048
2 7.82389 10.9519 13.0001
2 10.3549 6.84654 10.0025
2 4.81399 1.01928 -0.068637
2 11.5186 6.36899 4.12439
2 6.28476 10.6806 10.6908
2 0.670046 5.81058 4.61854
2 5.96102 1.76869 12.0693
2 1.85438 6.70133 8.93551
2 7.98628 4.88607 0.863236
2 10.5952 8.21283 9.48227
2 6.16464 10.0224 1.05248
2 10.6541 10.3292 8.10275
2 3.26111 9.72547 1.47643
2 2.06357 4.06534 9.74023
2 8.81306 2.44103 2.00742
2 1.92507 9.11955 9.03843
2 8.83623 10.1853 1.99502
2 10.0034 4.1611 9.50147
2 4.63782 1.75791 2.75303
2 2.8614 3.38568 5.72577
2 8.47517 2.08697 10.8965
2 10.0298 8.64822 3.96166
2 3.51099 10.5778 10.1234
2 10.9042 3.69426 3.65057
2 3.32488 1.49455 10.8557
2 1.3414 9.18647 3.9486
2 8.72639 11.5203 10.1625
2 12.4043 9.64971 13.294
2 2.13279 -0.0723227 6.44314
2 11.5073 2.05516 12.3435
2 11.5078 12.7049 6.57805
2 12.3256 11.5045 2.01098
2 0.267886 0.521643 7.35664
2 12.1473 12.1586 11.7751
2 0.641557 12.5985 4.34152
2 11.8932 1.30157 2.46689
2 11.4699 12.801 9.3313
2 1.14935 9.46287 1.85369
2 1.9815 1.53624 8.51766
2 5.19332 1.9345 4.78995
2 1.85477 11.9121 9.10158
2 11.2609 9.36229 2.32244
2 10.9816 2.20401 8.13281
2 0.163979 10.5356 10.5958
2 3.08465 1.13623 4.08422
2 10.8966 1.58648 10.5499
2 11.1402 11.0661 4.29291
2 10.8476 10.2985 10.9244
2 11.1571 0.555924 4.18062
2 0.625016 1.34642 10.389
2 2.55371 11.3806 4.01319
1 11.2387 8.81862 8.01677
1 4.59346 10.4251 0.458428
1 1.13533 5.2016 9.15243
1 7.79394 3.26211 0.83535
1 1.2201 7.91226 8.22298
1 7.69028 10.9975 1.07522
1 11.0504 5.29026 10.1069
1 4.52377 0.638956 1.56161
1 1.33341 3.3484 6.23514
1 7.66425 1.55154 12.1195
1 10.9964 7.62546 4.78241
1 4.56257 11.1315 11.2746
1 12.305 4.82148 4.36425
1 4.29822 1.25876 12.247
1 1.09073 7.64991 4.83837
1 7.59531 11.4639 11.2861
1 10.07 10.2312 3.33436
1 1.49658 10.4564 9.60873
1 3.98968 2.96313 4.16383
1 9.70495 2.68655 9.57166
1 2.16365 10.1957 2.7638
1 10.3815 11.2313 9.5813
1 10.6711 2.28025 2.54434
1 1.99321 2.34511 9.89597
1 12.358 -0.107241 3.26807
1 11.7869 0.732508 7.97971
1 12.6898 10.0261 1.36863
1 1.73115 -0.0141357 8.11856
1 12.1567 10.4442 11.851
1 2.21817 -0.109213 4.73341
1 12.1153 1.06084 11.2851
1 12.0934 11.5298 5.65884
96
 Atoms. Timestep: 4000
2 0.659157 6.77055 4.71556
2 6.48159 0.239977 11.7615
2 2.37221 5.85546 5.46642
2 8.43179 12.6583 11.9415
2 11.6442 4.9806 7.84739
2 6.757 2.36988 1.55126
2 12.4472 9.06672 8.02632
2 4.53649 0.111405 0.84482
2 11.5668 8.07767 6.35807
2 4.59169 11.2735 12.9359
2 0.564608 5.15031 7.01623
2 7.75399 2.549 12.7877
2 1.73734 8.50445 6.43381
2 7.69279 10.1359 -0.057531
2 12.1607 2.14323 6.87762
2 4.29131 2.56073 13.4337
2 12.3591 5.6281 3.52126
2 6.7539 10.9401 11.5675
2 0.74686 5.69918 0.153451
2 5.84878 2.26165 11.3091
2 0.784816 7.13335 8.99042
2 5.20877 4.14601 10.9691
2 9.29693 7.99358 7.37612
2 6.07296 11.0936 1.92178
2 10.62 8.78533 9.66296
2 3.1407 10.7573 1.71977
2 0.77325 3.97567 9.53576
2 9.54208 2.6426 0.896054
2 1.89252 9.37036 9.50871
2 8.81859 9.54062 2.33292
2 9.90741 2.73082 8.14055
2 3.90599 1.98122 2.44638
2 2.62082 3.54948 4.84377
2 8.74314 1.97903 10.6218
2 10.4204 7.26647 3.97985
2 3.95501 11.2307 10.8818
2 11.2012 4.93976 1.08547
2 3.28057 3.12758 10.3661
2 2.80104 9.03659 3.66917
2 9.09041 9.39566 11.807
2 11.9415 10.6407 0.222062
2 1.69786 0.268245 6.8092
2 11.4427 3.34386 12.1984
2 10.7145 10.4206 7.72046
2 11.8336 11.5701 3.58748
2 -0.0834387 11.987 7.99739
2 11.2853 1.1319 11.9464
2 0.795429 2.87367 5.74557
2 -0.212361 11.7769 6.42241
2 11.1917 11.4706 10.4218
2 0.498456 10.905 2.38991
2 1.84177 1.14892 9.25272
2 4.99621 3.20524 5.02241
2 2.3373 11.1564 8.64887
2 11.0972 9.44736 2.94724
2 9.78554 -0.0114277 8.60257
2 1.5635 10.3674 11.904
2 2.28867 1.25571 4.26633
2 11.1164 1.47332 9.92549
2 9.95711 10.353 4.80275
2 12.1488 9.75299 11.588
2 10.7956 12.2585 5.81199
2 0.744205 2.38818 11.1833
2 2.12038 11.9632 3.58964
1 10.6909 8.70752 7.77097
1 4.63935 11.2149 0.990375
1 0.255175 5.34023 8.70769
1 7.83388 2.75579 0.731954
1 1.37151 8.42563 8.32951
1 7.52223 10.3349 1.52342
1 11.2356 3.39798 7.49504
1 5.2493 1.89834 1.27757
1 1.43159 4.62365 5.75577
1 7.60175 1.37719 11.6754
1 11.9027 6.87394 5.03789
1 5.3129 12.0463 11.689
1 -0.0366263 5.41868 1.82234
1 4.42233 2.81348 11.6607
1 2.13034 7.73487 4.93594
1 8.25541 10.8697 12.0484
1 9.68931 8.9468 3.91815
1 2.59561 10.5853 10.3807
1 3.90979 2.521 4.43268
1 9.59469 1.56146 9.14961
1 2.01997 10.6439 2.86276
1 10.6786 8.73441 11.3621
1 10.6279 3.65361 0.157389
1 1.62709 2.64927 9.67173
1 12.4301 12.5379 5.01704
1 11.1041 11.6971 8.80782
1 11.8772 10.6118 2.09213
1 1.78513 12.4992 8.03153
1 0.181608 10.4839 12.4388
1 1.13037 1.2282 5.61807
1 12.1166 2.47185 11.0492
1 9.955 11.0364 6.313
96
 Atoms. Timestep: 6000
2 0.66402 7.70824 6.04691
2 5.42535 12.0962 10.6525
2 4.88241 3.68227 4.78393
2 7.49831 0.177458 11.7501
2 12.3039 4.58675 6.55343
2 5.75849 2.75334 1.46769
2 11.759 7.14742 9.38201
2 4.69066 0.158469 2.16747
2 10.9975 7.93369 6.68111
2 4.33641 11.3789 13.0645
2 2.72338 3.81176 6.92345
2 7.26423 2.23542 12.073
2 2.0753 6.16794 6.39788
2 7.4858 9.88785 0.796935
2 10.6281 4.18953 5.20635
2 3.13512 2.20391 0.532207
2 11.3174 6.15074 5.03669
2 6.14188 10.2989 12.0313
2 11.5412 3.05645 3.34894
2 5.17333 2.38049 11.0463
2 1.84241 5.87519 8.87726
2 4.65818 4.62739 11.7997
2 9.9514 5.84439 7.65923
2 5.43508 9.72521 2.05445
2 12.2158 9.31502 9.54259
2 3.73108 10.6189 2.74158
2 0.693716 4.03538 8.8429
2 8.37302 3.07309 1.25151
2 1.5545 8.36145 9.61075
2 6.78154 10.555 3.72898
2 10.0888 2.93255 7.42247
2 6.71629 0.533176 5.32735
2 4.76078 1.94957 6.10898
2 7.47384 1.6171 9.15871
2 11.2019 9.51087 4.90214
2 3.16569 10.0577 10.565
2 10.4099 4.57287 2.11893
2 2.7855 2.51043 10.8377
2 3.03485 8.84741 4.66897
2 9.1147 10.1629 11.1676
2 0.847113 10.8271 1.17458
2 1.90929 0.553398 6.35545
2 10.1744 2.183 12.1999
2 8.99057 10.6503 4.4066
2 12.3124 0.947259 2.51046
2 0.224872 11.4652 6.98865
2 11.6995 12.4922 12.1072
2 3.66201 1.33319 3.75728
2 1.58066 0.760253 3.76817
2 10.9275 10.223 7.37786
2 1.6398 10.8535 3.64441
2 1.50758 1.47025 8.58433
2 8.00865 1.31166 6.85301
2 1.88186 11.3102 9.08835
2 12.1086 10.9952 3.03796
2 10.6916 0.535131 8.03497
2 0.918005 10.2541 11.7412
2 5.44644 1.41281 8.25779
2 10.0267 1.68371 9.74495
2 9.2258 0.422861 3.3241
2 10.2225 10.6004 9.80954
2 11.0561 12.5302 4.01138
2 11.8463 2.92971 9.96071
2 3.28605 11.766 5.18039
1 10.4386 7.15355 8.04965
1 5.03213 10.989 1.38258
1 1.43003 4.91397 7.28562
1 6.75628 3.10709 0.378942
1 1.07579 6.81206 9.77432
1 7.01293 9.37996 2.57898
1 10.7673 4.536 7.01158
1 4.37334 1.86822 1.83423
1 3.72537 3.13379 5.81836
1 6.57868 1.20801 10.7825
1 11.2172 7.8534 5.23599
1 4.63639 10.9785 11.5317
1 11.1829 4.88705 3.54393
1 3.95762 3.00495 11.9328
1 2.55464 7.79349 5.78274
1 7.90016 10.7716 12.4862
1 10.6895 10.8982 4.11614
1 1.6225 9.78152 10.1823
1 6.25784 1.38571 6.80274
1 9.3445 1.64523 8.17701
1 3.17951 10.4755 4.43689
1 10.8333 9.24907 8.84407
1 10.0321 3.32279 0.868223
1 1.27501 2.78293 9.68418
1 10.7596 1.51789 2.80614
1 11.0546 11.8126 6.84185
1 1.07704 11.9428 2.83117
1 1.7653 12.4514 7.86141
1 0.459236 11.471 12.7031
1 2.75951 0.960268 4.86801
1 11.1782 1.58277 10.9916
1 7.80008 11.784 4.04629
96
 Atoms. Timestep: 8000
2 0.454175 7.5677 3.53649
2 4.67038 1.07543 10.0815
2 4.8046 3.20129 5.22038
2 7.02074 2.95111 11.7774
2 0.409434 4.49661 5.27455
2 5.2994 3.10815 2.13902
2 0.178221 6.33311 9.51394
2 3.46099 1.29545 1.58392
2 12.0548 6.69713 6.34718
2 3.98606 11.9117 12.8719
2 3.31314 4.54823 5.72909
2 8.0916 4.01928 3.52656
2 2.26471 6.07577 4.0675
2 6.30963 1.14654 1.22281
2 9.88521 4.67731 5.48747
2 2.62491 3.57818 2.92838
2 10.3036 6.22539 4.14088
2 4.41491 2.25107 12.6703
2 10.1142 2.27843 2.61486
2 6.53655 4.0415 9.7374
2 1.0284 7.6165 12.0027
2 4.72008 4.27608 8.28764
2 0.838649 4.47097 8.94672
2 5.32773 11.9027 2.3272
2 11.1019 6.84814 11.2039
2 3.14519 9.75853 0.630797
2 2.93175 3.05191 9.30185
2 8.31714 2.47712 1.41878
2 1.82713 8.88328 9.51936
2 6.52485 11.3909 4.18968
2 10.3738 2.79719 7.00865
2 7.06071 0.804988 6.65719
2 6.37489 3.54398 6.86793
2 9.1511 4.36746 10.598
2 10.8051 8.20658 5.25387
2 4.141 10.3305 10.5029
2 10.203 4.32614 2.00438
2 3.63331 2.62947 11.2212
2 2.88777 7.57567 1.5354
2 11.6909 9.20934 9.95708
2 12.1098 11.5516 0.959837
2 1.1227 11.2431 6.84607
2 10.626 3.04799 12.4119
2 8.43169 9.95509 5.55892
2 8.42219 0.974121 3.33424
2 0.34287 10.7532 8.90868
2 0.549874 1.70484 12.1601
2 4.39639 2.26092 4.25308
2 0.650598 10.5198 3.60685
2 11.449 9.73836 7.53605
2 0.601774 9.25659 1.26243
2 0.725445 1.53381 7.81927
2 11.0815 0.833625 6.4993
2 2.36882 11.4889 8.85347
2 10.9705 9.40899 3.44611
2 10.2908 12.0249 8.67157
2 1.8296 11.6288 10.7646
2 7.82982 2.41615 8.85155
2 10.9671 2.51002 9.66648
2 10.233 0.747979 5.17802
2 11.5767 4.73698 11.4513
2 11.1092 11.5805 3.01135
2 0.869855 2.66011 9.83817
2 11.5046 10.0266 5.82741
1 0.410406 5.79426 7.79216
1 3.75331 11.5056 1.6557
1 2.06363 4.3754 4.52594
1 7.0578 3.40192 2.40585
1 0.416375 7.75999 10.4743
1 6.64908 0.50748 2.84371
1 11.1876 4.08608 6.5542
1 3.9641 2.47995 2.64683
1 4.8807 4.15721 6.49636
1 7.90102 3.43408 10.2445
1 11.6402 6.90109 4.7216
1 5.02401 11.755 11.0447
1 9.53618 4.74362 3.69223
1 4.73549 3.05202 9.9082
1 1.94324 7.02561 2.81743
1 6.0976 1.68777 12.5
1 10.1204 9.57756 5.09362
1 2.60833 10.367 10.0031
1 6.82468 2.25214 7.42874
1 10.7465 1.55856 7.97806
1 1.89285 8.46849 0.365182
1 10.1445 5.57412 11.5074
1 9.84602 2.59755 1.1744
1 1.6184 3.02107 8.53526
1 10.1741 0.851846 3.60289
1 10.9572 10.1823 9.00201
1 11.7875 10.3949 2.17495
1 0.92426 12.0379 8.24406
1 0.641561 12.2042 12.2288
1 0.884878 11.0391 5.16461
1 11.9869 2.93944 11.0902
1 7.50994 11.1649 5.63321
96
 Atoms. Timestep: 10000
2 2.35879 8.98756 5.01665
2 4.11963 2.30267 10.3748
2 5.66899 1.01538 3.17306
2 8.05835 2.83982 10.9297
2 0.177624 1.40507 6.11187
2 6.59754 5.11096 4.27359
2 11.2915 6.50468 9.84505
2 6.20886 10.7639 1.63574
2 10.4783 6.45032 6.82739
2 2.13433 2.23908 11.0715
2 4.59582 3.78678 3.96953
2 6.36887 6.32569 2.20785
2 2.73776 5.94748 4.70707
2 8.31214 11.7235 1.3289
2 1.80373 3.69808 1.41962
2 4.3732 1.1635 12.5356
2 1.54779 6.79337 2.71803
2 7.26724 2.73998 1.77035
2 10.0394 2.88822 1.82091
2 5.67357 4.05058 10.1479
2 11.4802 6.28104 0.733661
2 5.02604 2.86946 7.81435
2 0.863136 4.8553 8.08416
2 8.74971 8.83033 1.89005
2 9.61171 7.37099 10.8721
2 5.83795 8.62628 1.0915
2 2.98575 2.72645 8.47722
2 8.47941 5.39352 2.12065
2 11.3607 8.76538 12.4589
2 8.01683 10.5339 3.34132
2 11.9164 2.19356 7.55248
2 9.81575 11.0205 5.4174
2 6.54389 2.10512 5.80436
2 7.24756 5.98805 10.2394
2 8.15138 8.8866 5.93271
2 4.20359 10.9216 11.0574
2 11.0695 4.80475 1.9696
2 1.89366 4.27464 3.35815
2 3.97846 7.45598 2.96371
2 7.03496 10.3532 10.3643
2 2.3117 0.749998 1.32147
2 1.38593 10.1647 7.98699
2 9.88206 4.42654 11.6944
2 6.91319 11.0968 5.3112
2 9.96899 1.18485 0.530775
2 8.87731 8.93911 9.61745
2 11.2387 2.74596 11.8823
2 3.64325 11.1704 2.8182
2 1.00046 10.8613 3.92132
2 8.41496 0.442435 11.103
2 0.979818 10.3267 1.54479
2 2.36713 0.792424 8.03252
2 8.76753 2.47097 7.00313
2 1.2161 10.4265 10.512
2 7.4549 10.6188 8.10553
2 9.36501 0.758954 9.36693
2 11.9232 11.973 12.2968
2 6.99304 3.85277 8.4939
2 9.95874 3.28913 9.08923
2 9.59003 0.859849 3.82002
2 9.15227 6.08518 8.89209
2 0.684723 1.40486 2.21789
2 0.622541 3.44007 9.74265
2 11.086 9.15369 6.4462
1 10.7977 5.8292 8.33705
1 5.50313 9.64096 11.5325
1 2.83078 4.11001 4.67815
1 7.17476 4.51662 2.76457
1 11.2323 7.2809 11.5917
1 7.90079 10.2375 1.72475
1 11.732 11.5073 5.34835
1 5.16286 12.0123 1.72575
1 5.49074 2.17485 4.37688
1 7.09699 4.01672 10.0979
1 10.0356 7.81677 6.16526
1 3.80312 0.961168 11.0906
1 1.14151 5.27986 1.92646
1 4.43476 3.23164 9.24098
1 2.737 7.47772 3.99059
1 7.57677 1.53823 12.3684
1 6.85362 10.2404 6.67133
1 11.813 10.2745 11.9015
1 6.8898 2.77686 7.17505
1 10.0724 1.72069 8.3047
1 5.30984 7.49613 1.88296
1 8.39656 7.14592 9.92425
1 9.77421 4.63616 1.26049
1 1.45391 3.30642 8.20701
1 10.5946 1.17409 2.36136
1 8.31242 10.8029 9.73803
1 2.01772 11.2448 2.59133
1 2.27888 11.0846 9.2134
1 1.32051 2.21841 0.501267
1 1.24986 9.64218 6.29331
1 10.6269 3.65867 10.4989
1 8.41334 11.4614 4.57602
96
 Atoms. Timestep: 12000
2 2.36506 8.36426 4.93974
2 3.28536 3.29564 11.9437
2 6.27072 1.78378 3.9782
2 5.06509 4.08651 9.99475
2 10.937 3.2381 5.57356
2 6.79248 4.50287 3.88021
2 10.7145 5.74065 10.1028
2 7.97449 11.1733 3.0042
2 9.8263 5.75588 7.8231
2 3.76077 2.41672 2.59202
2 3.92225 2.79222 4.5479
2 5.80114 6.00845 1.40685
2 1.63475 5.98157 4.58616
2 8.60576 9.04148 2.14059
2 1.9062 3.4661 2.32282
2 5.639 0.916307 1.96605
2 1.31603 6.41614 2.33421
2 6.94744 3.35243 1.45371
2 10.2301 5.60155 5.6428
2 1.66945 5.42125 6.86497
2 11.4018 5.66111 12.0944
2 5.72495 1.46178 8.18568
2 2.36923 7.33922 10.1212
2 9.89196 7.67584 1.19554
2 9.26709 7.60447 10.4789
2 4.7871 8.60241 11.973
2 2.95625 5.46472 9.51147
2 8.48118 4.69838 2.21178
2 11.2742 8.33902 11.3156
2 10.4312 10.9572 1.80249
2 1.53349 7.60554 7.50883
2 10.0928 1.86769 7.45926
2 6.34831 3.20476 5.93209
2 7.11977 6.65145 9.85793
2 9.0215 7.09135 4.78106
2 4.72261 11.5922 11.896
2 11.0061 4.22887 2.28012
2 1.91757 3.57918 4.94434
2 3.60638 7.58701 2.88786
2 5.64727 10.2326 10.245
2 2.11484 0.605712 1.44669
2 2.28729 10.0992 6.61424
2 9.33346 2.59777 12.2847
2 10.7108 8.79236 3.23093
2 8.46526 11.7454 12.1357
2 6.67052 9.09838 9.35516
2 11.3252 1.5624 11.4209
2 4.70905 10.3811 3.42688
2 11.0226 11.0368 5.51111
2 6.67362 1.85772 10.7326
2 3.00977 10.1661 11.9714
2 1.31149 0.94574 7.2878
2 7.92261 2.94706 7.87062
2 3.59883 10.4221 9.51905
2 7.99377 7.21397 2.79358
2 7.67069 11.5979 8.75689
2 3.00615 7.68232 12.3358
2 6.00791 4.47484 7.88594
2 8.92423 2.26006 10.029
2 1.4652 10.3307 3.14457
2 8.70939 7.39458 7.80556
2 0.620712 1.88496 2.98748
2 10.9496 3.79112 9.34458
2 10.7699 7.9571 6.60754
1 10.9888 5.38841 8.72561
1 4.29083 10.0217 11.1383
1 11.99 4.89574 5.58926
1 6.99631 5.36529 2.20537
1 10.1584 6.91609 11.5703
1 8.88081 10.7446 1.90058
1 11.1885 1.46221 6.22047
1 6.20022 11.4059 3.49514
1 5.49567 3.14903 4.53117
1 5.96207 5.44865 9.19997
1 9.46384 6.7474 6.52139
1 4.4544 1.82182 1.29197
1 1.25045 4.87187 1.76799
1 3.51024 4.15925 10.5044
1 2.26088 7.12294 3.45464
1 7.51533 2.08059 12.0578
1 9.49217 7.58132 2.83527
1 1.71294 9.08327 11.9574
1 6.10937 3.11653 7.52576
1 8.67784 1.77422 8.54239
1 4.3185 6.99912 1.21096
1 8.17666 8.06313 9.36003
1 9.59783 4.13147 1.36661
1 2.25642 6.36676 8.29664
1 11.6257 1.20452 1.35604
1 6.37397 11.6549 9.54658
1 2.92778 10.7192 2.53694
1 2.70144 11.1067 7.9054
1 2.14662 2.71028 3.70691
1 1.24971 8.68573 6.07807
1 10.4946 2.76593 10.46
1 11.3704 9.92283 4.121
96
 Atoms. Timestep: 14000
2 3.07516 6.14841 5.25114
2 0.803893 2.17148 1.06703
2 4.33636 1.01164 3.82224
2 7.43084 4.62904 9.03749
2 1.16921 2.52311 7.58468
2 5.36958 3.26399 4.62759
2 11.0675 7.5068 10.8576
2 5.72245 9.5753 2.47282
2 9.29607 8.08063 8.79117
2 1.35083 11.5774 12.3498
2 0.943212 3.71815 3.72386
2 6.27652 7.93726 9.92488
2 2.42358 4.00993 5.47045
2 7.6109 8.93541 2.99015
2 4.24026 7.78927 1.17173
2 3.11542 1.06882 0.880601
2 3.03808 6.16319 3.12755
2 5.87209 3.51437 1.43962
2 11.7315 5.49287 6.97944
2 2.33583 4.70595 8.10954
2 1.29725 7.95329 2.1596
2 7.27214 1.56749 8.69666
2 3.27337 6.55307 9.71251
2 7.58855 9.44729 11.8672
2 10.229 5.61384 8.75293
2 7.83757 9.84665 10.4844
2 5.21935 5.35053 9.22872
2 6.80922 5.156 3.92672
2 2.50984 7.69804 11.8371
2 8.80923 10.7164 1.98976
2 3.37049 6.66135 7.41998
2 11.4791 1.18449 8.55336
2 6.23594 1.48075 5.83181
2 8.10838 6.191 7.0729
2 9.58875 7.25822 5.41082
2 3.02916 1.69507 10.2745
2 9.40466 4.67135 3.4544
2 11.5106 4.03132 5.66711
2 3.64008 4.27157 3.53711
2 5.62903 1.7352 10.0408
2 11.5166 11.8109 2.05147
2 2.67626 9.01105 6.40381
2 8.08049 4.35136 1.892
2 10.0737 9.65432 4.9172
2 6.03063 11.4594 1.52858
2 7.07056 9.13195 8.51859
2 9.12594 1.9789 1.49679
2 3.08421 10.6452 2.20974
2 12.0052 11.419 5.76548
2 7.10726 1.63879 11.7171
2 0.809281 8.12054 5.98445
2 3.11675 11.3076 6.98102
2 8.86708 1.49444 7.39619
2 5.30304 10.6925 8.49405
2 8.48588 7.1946 3.29417
2 8.90399 1.03316 9.91221
2 4.7569 9.01363 10.6145
2 8.08314 3.32092 6.75234
2 9.94993 3.48798 8.40058
2 11.882 10.0258 3.26539
2 8.17058 8.5128 6.25735
2 10.7031 2.06186 3.10375
2 8.10893 6.36427 10.3647
2 1.09117 6.17685 4.46602
1 9.83297 6.70859 9.88077
1 4.41405 0.971148 9.01515
1 1.49369 4.07242 6.9038
1 5.44189 4.21745 3.30349
1 1.1032 7.43071 12.0288
1 6.99556 10.2883 1.76192
1 1.66652 0.8885 7.13116
1 4.01855 9.55999 3.21306
1 4.65372 1.90952 4.88016
1 8.73332 4.35269 7.93252
1 11.1782 6.65697 5.81649
1 1.78617 1.73131 11.6133
1 3.07773 7.66041 2.4755
1 6.6036 6.00279 9.4641
1 2.19105 5.09531 4.01754
1 4.83039 1.26653 2.0345
1 8.74232 8.59948 4.40951
1 4.13428 7.41322 11.3143
1 7.28037 1.94588 6.91327
1 9.84448 1.7888 8.83153
1 6.21397 9.58801 9.85618
1 7.85977 7.92536 7.79345
1 8.26718 5.63259 3.15196
1 3.67423 5.613 8.63758
1 10.0261 0.925034 2.32431
1 7.2363 0.960997 10.1741
1 1.43711 10.8614 1.93753
1 3.89478 9.89658 7.36859
1 10.5159 3.65846 4.21944
1 2.43221 7.483 6.41068
1 7.49312 2.77687 0.968865
1 11.7729 9.9605 4.94881
96
 Atoms. Timestep: 16000
2 3.7282 6.86404 5.05661
2 4.5346 3.63663 12.3984
2 6.15592 1.69367 2.04709
2 7.23787 4.73589 9.5896
2 2.12127 2.08635 7.68941
2 4.41705 2.62271 3.15192
2 9.30836 7.36328 12.3544
2 4.72388 8.58329 4.46158
2 8.87009 7.98651 9.8561
2 2.76407 1.4552 0.83616
2 0.989351 5.87849 4.3143
2 7.95531 3.5669 11.8401
2 2.7179 4.57329 5.43617
2 7.96194 9.40023 6.16304
2 2.38126 7.66201 11.6855
2 5.4094 0.96428 11.9046
2 3.0915 8.71456 2.38207
2 6.34855 2.51603 11.2042
2 9.18639 5.33704 7.7363
2 3.02024 4.11633 7.98164
2 11.8444 7.01509 2.63039
2 5.22967 9.12102 6.44378
2 1.83681 10.2459 10.226
2 9.8771 9.38495 1.48271
2 9.67339 5.40506 10.965
2 6.22351 6.94009 8.62085
2 4.98262 4.66072 9.63694
2 6.26818 5.07345 3.43047
2 2.52272 8.1749 9.33155
2 10.3728 11.6554 2.82045
2 4.25724 6.66219 7.30534
2 9.84022 11.5815 7.456
2 6.04283 1.75626 4.94997
2 8.00759 6.93043 7.74108
2 10.856 7.40753 6.69937
2 3.78332 1.08566 10.0778
2 10.0753 4.72384 5.4586
2 0.547466 3.21446 5.70299
2 3.16998 4.56854 3.45369
2 4.95373 2.04175 7.29212
2 1.11833 1.27781 2.67653
2 11.8126 8.69398 7.10668
2 8.38541 4.25301 2.66637
2 10.5169 8.60674 4.64023
2 8.04047 11.1642 1.78987
2 7.19714 9.11786 8.49072
2 10.3697 3.11291 2.25891
2 3.95451 10.6585 2.77995
2 1.21866 10.9642 4.99124
2 10.3252 4.35727 11.8914
2 2.33496 8.89134 4.67606
2 1.12751 10.6707 7.23972
2 7.09362 3.81454 7.53801
2 3.00789 10.6722 8.03089
2 8.31153 7.1022 2.96798
2 7.50427 11.2874 7.16846
2 4.49218 8.8811 10.2453
2 5.16983 4.46319 6.95976
2 8.41994 2.98816 8.11383
2 1.54293 10.2002 2.86131
2 9.38618 9.2087 7.56996
2 11.1749 1.47144 4.93299
2 7.41545 5.8559 11.7855
2 11.7395 4.8495 6.83501
1 8.6447 6.75767 11.0495
1 3.74248 1.04026 8.15682
1 1.73785 3.53288 6.75291
1 4.78105 4.14886 2.65666
1 9.98415 7.617 2.01902
1 9.67645 11.0384 1.60688
1 11.1489 11.4028 6.25647
1 4.48171 9.12562 3.04266
1 5.17254 1.4508 3.65152
1 7.1766 5.47299 8.11934
1 10.3375 5.78812 6.74513
1 3.87455 1.94146 11.5599
1 1.73478 7.67677 1.52558
1 6.48084 4.45781 11.0527
1 2.66816 6.09058 4.23433
1 7.02259 1.28293 0.885037
1 9.86384 9.49702 6.03955
1 2.92462 9.03198 10.6595
1 6.14696 2.9131 6.54483
1 8.35971 1.12244 7.91488
1 6.20665 8.34775 9.84705
1 8.57628 8.24521 8.36345
1 7.63503 5.73518 3.50066
1 4.04229 5.18841 8.39065
1 10.8783 1.98148 3.18886
1 6.68533 9.80942 7.16007
1 2.13059 11.5068 2.08872
1 2.29356 9.13811 7.79142
1 11.1809 4.09841 4.39611
1 3.81306 8.12046 5.97908
1 9.11264 3.79188 1.19184
1 1.07884 9.38062 4.11426
96
 Atoms. Timestep: 18000
2 1.95424 5.2785 3.80646
2 4.01333 4.0668 12.4385
2 6.90946 1.54031 1.5423
2 9.93467 5.04646 10.0073
2 1.75734 2.97248 7.09448
2 5.14187 10.8766 1.86856
2 6.72325 8.14766 12.3446
2 2.42183 8.17297 4.25044
2 9.20599 8.75336 10.1814
2 3.5139 1.18968 12.1502
2 1.0317 4.05721 2.13587
2 9.2963 3.15352 12.1372
2 0.735662 3.70189 5.32585
2 6.56545 7.05294 5.08693
2 4.41186 8.09664 11.0996
2 6.59603 3.64382 10.9045
2 3.58481 11.0459 3.45017
2 8.08477 5.25062 11.5368
2 11.3092 6.76105 8.50327
2 5.07823 5.74418 0.733328
2 10.0804 4.70242 1.57117
2 4.91848 8.94291 6.22568
2 3.95245 9.90297 12.205
2 8.65127 9.98254 1.10924
2 8.31942 6.7908 1.78805
2 5.71377 7.93171 8.17269
2 7.44979 5.46369 8.71132
2 5.53851 4.22262 3.32141
2 2.44777 10.6584 10.3997
2 10.2636 11.4509 1.41355
2 0.858951 6.92635 5.24051
2 9.77957 10.605 5.60245
2 7.07587 3.02439 7.01701
2 8.61513 6.99444 9.42375
2 10.1178 6.51921 6.05824
2 3.11996 2.32971 10.2432
2 7.55955 5.49018 6.56168
2 9.35101 2.14712 5.71278
2 3.83285 5.70282 3.11976
2 3.65895 2.89174 8.06061
2 1.7044 11.8552 1.72006
2 0.752022 5.09151 11.1656
2 6.86886 1.38329 3.53281
2 8.00435 5.68582 4.16058
2 8.44929 1.28401 11.5745
2 7.06996 9.78916 8.43155
2 11.5265 2.24949 12.4495
2 7.58397 10.2809 3.69827
2 11.4844 11.4059 6.34504
2 1.85051 3.6285 12.1989
2 11.564 8.73844 6.34361
2 10.1209 11.0602 10.5649
2 0.883037 4.56261 8.49611
2 1.0221 0.844836 8.94074
2 7.86023 3.89567 1.78618
2 6.80197 10.2964 6.35276
2 4.9847 10.2792 9.17984
2 5.17323 4.86573 8.05083
2 10.1367 4.45587 6.63149
2 1.85041 10.1241 5.20465
2 8.30903 7.85531 6.93219
2 11.1171 1.5795 3.94076
2 9.42081 8.4627 11.58
2 0.974531 5.8247 6.85786
1 8.24981 8.19385 1.28443
1 2.08081 1.95918 8.47269
1 0.781609 4.33901 6.81068
1 4.71941 4.64571 2.05638
1 8.92884 5.48192 2.3979
1 9.38701 10.9894 11.7965
1 10.5089 1.10797 5.31382
1 2.50386 9.82847 3.81855
1 6.70661 11.2583 2.61254
1 11.5886 5.96064 9.76986
1 11.3018 7.20822 6.74674
1 3.13141 2.78496 11.5882
1 5.16633 7.48752 12.4246
1 8.286 5.46648 9.9967
1 0.9237 4.18068 3.86303
1 7.67658 2.70427 12.1328
1 8.2795 6.70371 5.61291
1 4.09598 9.6763 10.5048
1 5.28176 3.36155 7.68164
1 8.17795 10.103 5.30596
1 5.63279 9.67446 7.66018
1 8.75281 8.48669 8.56135
1 7.03831 3.2939 3.57284
1 6.22669 6.35287 7.90274
1 11.3064 1.19969 2.23978
1 4.99865 7.06993 5.91156
1 3.46983 11.2187 1.59792
1 0.787763 11.1458 10.2811
1 8.4835 3.73277 6.57038
1 2.43633 6.66071 4.39947
1 11.1997 3.86975 12.2858
1 1.35556 10.1911 6.59033
96
 Atoms. Timestep: 20000
2 1.89262 6.21742 1.163
2 3.84131 3.63739 11.1111
2 8.69449 1.25742 12.5282
2 9.27577 7.6393 10.4709
2 11.4976 2.39772 9.50322
2 6.59151 9.32492 11.4031
2 3.13391 4.48454 1.7264
2 3.09591 8.60853 3.47
2 11.2791 6.38053 11.3636
2 5.34677 11.6885 12.4793
2 11.6225 4.44253 1.49274
2 10.9858 2.0172 1.55124
2 0.904292 4.4899 10.2774
2 9.1607 7.9798 5.8303
2 4.51274 7.5215 8.53838
2 10.4541 2.62129 11.9123
2 4.37108 9.29691 12.7242
2 7.73482 7.59816 0.958534
2 10.9704 6.59558 8.41168
2 4.50671 5.59505 11.5535
2 10.1135 3.53933 3.68549
2 7.28605 9.76633 6.25005
2 4.0289 9.95611 10.0711
2 10.152 8.17431 1.51996
2 9.0583 6.03109 2.481
2 6.78514 7.60037 8.26198
2 7.24047 7.10063 10.3126
2 6.48672 3.91018 12.2267
2 2.14283 9.95511 8.05195
2 1.43944 11.8754 3.37424
2 1.6874 7.32681 5.57512
2 6.78327 9.79731 4.24397
2 4.39461 11.7901 4.18638
2 9.82683 9.52655 11.0594
2 10.8473 6.54855 5.8663
2 1.22178 7.39893 8.0261
2 8.63181 5.59298 6.91655
2 8.26145 2.9029 8.49751
2 2.5687 7.84335 8.51515
2 1.09329 11.7017 9.29012
2 2.58813 1.11504 5.31284
2 9.10973 6.01621 9.36069
2 7.19854 2.348 1.95199
2 8.11756 5.64284 4.59302
2 9.79194 10.8344 0.680953
2 7.75808 10.2375 9.11726
2 0.911898 2.60446 4.0196
2 6.6632 11.2093 2.32531
2 9.40217 10.9933 5.07561
2 1.79697 2.28905 11.1556
2 0.382774 10.7795 7.07927
2 0.525922 10.0886 1.47413
2 10.2776 4.6455 10.7662
2 11.3049 11.9883 11.5932
2 7.35923 4.2723 2.8235
2 5.21365 9.14857 3.17004
2 4.93076 9.62322 7.76808
2 5.37352 4.78814 9.4792
2 10.1035 4.25999 8.23845
2 11.3656 0.569215 5.30193
2 10.7801 10.5309 9.06364
2 9.29417 11.9933 7.14259
2 8.55746 9.18125 3.33316
2 0.842986 4.99926 8.36614
1 8.72877 7.60307 2.40437
1 12.0731 1.18122 10.4109
1 11.3021 3.9688 9.3085
1 5.42559 4.039 11.0346
1 8.74864 4.7316 3.50075
1 10.4828 9.45796 0.701606
1 8.38833 1.74585 7.42222
1 4.36967 8.54706 1.90976
1 7.03374 0.917762 0.999189
1 10.3687 6.55329 10.0449
1 0.542103 6.3221 6.96321
1 2.48613 3.9683 10.6154
1 3.46104 5.58914 0.604554
1 7.84276 8.06796 11.6261
1 11.8897 6.10433 0.792521
1 10.2291 0.987257 12.6452
1 9.13042 6.49508 5.64428
1 3.60793 8.9611 8.53797
1 3.23118 11.2775 5.29296
1 5.63199 10.6644 3.70844
1 6.76287 9.3436 7.88878
1 9.38539 10.7106 10.1021
1 6.43809 3.71215 1.68568
1 6.08951 6.47712 9.04167
1 1.03273 1.13367 4.61776
1 8.34213 9.69467 5.09609
1 5.07242 10.2924 11.7004
1 0.803461 10.2401 8.86418
1 8.60904 4.79813 8.3201
1 2.29242 8.8936 4.99119
1 11.499 3.19707 2.60168
1 10.4028 11.2834 6.32944
96
 Atoms. Timestep: 22000
2 0.97866 5.09094 0.48235
2 4.29871 2.90622 10.2546
2 7.37905 11.595 12.0958
2 8.99098 7.81894 9.01451
2 10.9695 2.53577 10.0329
2 6.00009 9.87965 11.4681
2 11.7285 3.21178 2.09813
2 3.08079 10.2301 5.11886
2 10.7977 6.85398 10.8703
2 4.99624 11.5256 12.1551
2 10.3238 6.21123 0.807272
2 9.19113 1.50132 1.86897
2 1.90735 3.75235 9.38032
2 8.7209 8.42137 6.70307
2 4.22943 7.93383 10.8539
2 8.8633 2.26688 11.8507
2 4.60741 9.50351 2.48415
2 7.62063 9.83354 0.650118
2 8.99506 5.74211 8.05663
2 2.17658 2.96044 12.3061
2 9.12243 4.60012 2.61212
2 6.31258 8.74687 6.10091
2 3.85464 9.5455 12.1098
2 10.2343 9.87971 2.09986
2 8.9258 7.62811 1.87743
2 5.97655 7.22257 8.69337
2 6.55253 7.90942 11.1034
2 6.95371 3.93011 10.3189
2 2.12207 9.97066 7.89346
2 1.2247 1.91943 5.06373
2 2.26556 7.9649 6.91745
2 7.97226 10.9457 3.05432
2 7.39887 1.61212 4.33399
2 8.3879 10.3005 9.92658
2 11.6873 6.48877 8.41817
2 1.21236 9.47363 10.3137
2 0.617181 3.26235 7.43547
2 9.23932 2.04176 7.88562
2 1.05327 7.19659 10.767
2 11.4646 11.5094 9.59684
2 5.95025 2.12041 6.45616
2 10.5248 4.80313 9.39045
2 6.65028 2.63281 12.6408
2 9.39671 5.3087 5.31451
2 0.634208 10.629 3.51563
2 7.33549 9.51253 7.68951
2 10.7943 2.67592 3.91887
2 6.25318 1.18156 2.00877
2 12.0677 8.12524 6.67587
2 1.63933 0.718342 10.5779
2 11.2043 10.1602 7.57955
2 12.0541 8.36891 0.997774
2 3.94035 4.15153 8.01859
2 10.6653 0.581403 12.2147
2 7.67271 4.81095 12.7802
2 5.5044 11.3352 4.31041
2 3.962 8.96604 7.0467
2 5.14507 5.39413 10.1442
2 2.19261 2.51361 6.19891
2 11.6141 10.5844 4.84277
2 9.40432 11.1411 8.0897
2 8.39677 11.0543 5.79039
2 8.41832 8.76876 3.8191
2 1.69874 5.26185 6.8396
1 8.64437 9.43685 2.32248
1 11.4749 1.0261 10.7636
1 2.21317 3.96198 7.27173
1 5.29799 3.94325 9.55502
1 8.73874 5.71268 1.13354
1 11.7044 9.67798 1.86711
1 8.49021 0.561639 7.08901
1 4.37226 10.0998 4.00587
1 5.54006 1.15554 12.5021
1 10.181 6.45062 9.47928
1 0.978332 6.51449 7.03805
1 2.66625 2.55143 10.5499
1 1.34604 3.60714 0.888895
1 7.59119 9.39405 11.4157
1 11.7772 6.72271 12.2886
1 9.0536 0.833355 12.6607
1 8.63924 6.449 6.54965
1 2.43978 8.53159 10.8788
1 7.17064 2.66875 5.61232
1 6.64032 11.9729 3.40991
1 5.5353 8.56362 7.69326
1 8.91668 9.47751 8.43137
1 7.59458 3.55227 11.6773
1 5.51502 7.12627 10.2082
1 11.5571 1.38409 4.74776
1 7.87457 9.54452 5.36512
1 5.18408 10.1151 0.537837
1 0.600888 10.2898 8.77704
1 10.8199 3.26394 8.61946
1 2.62073 9.54694 6.34114
1 10.0467 3.24572 2.40382
1 10.754 9.43061 6.09525
96
 Atoms. Timestep: 24000
2 12.1993 4.96447 12.1273
2 5.69018 4.55121 1.22048
2 7.65914 1.21436 1.10569
2 7.75782 8.15075 8.23012