LAMMPS (2 Aug 2023 - Update 3)
units metal
boundary p p p
atom_style full
pair_style tersoff
neighbor 2.0 bin
neigh_modify delay 1




read_data SiO.data
Reading data file ...
  orthogonal box = (0 0 0) to (12.589463 12.589463 13.222096)
  1 by 1 by 1 MPI processor grid
WARNING: Atom style in data file atom-ID molecule-ID atom-type q x y z differs from currently defined atom style full (../read_data.cpp:621)
  reading atoms ...
  96 atoms
Finding 1-2 1-3 1-4 neighbors ...
  special bond factors lj:    0        0        0       
  special bond factors coul:  0        0        0       
     0 = max # of 1-2 neighbors
     0 = max # of 1-3 neighbors
     0 = max # of 1-4 neighbors
     1 = max # of special neighbors
  special bonds CPU = 0.000 seconds
  read_data CPU = 0.004 seconds
replicate 1 1 1
Replication is creating a 1x1x1 = 1 times larger system...
  orthogonal box = (0 0 0) to (12.589463 12.589463 13.222096)
  1 by 1 by 1 MPI processor grid
  96 atoms
Finding 1-2 1-3 1-4 neighbors ...
  special bond factors lj:    0        0        0       
  special bond factors coul:  0        0        0       
     0 = max # of 1-2 neighbors
     0 = max # of 1-3 neighbors
     0 = max # of 1-4 neighbors
     1 = max # of special neighbors
  special bonds CPU = 0.000 seconds
  replicate CPU = 0.001 seconds

pair_coeff * *  /root/Desktop/host/job1/SiO.tersoff Si O
Reading tersoff potential file /root/Desktop/host/job1/SiO.tersoff with DATE: 2010-08-16



group Si type 1
32 atoms in group Si
group O type 2
64 atoms in group O
#create_bonds many SiO SiO 1 0.5 10

dump dmp all xyz 2000 dump.lammpstrj



variable apot equal pe
# first number: number of steps to get current temp
# second number: calculate average n number of temp read above.
# third number: temp record (this must be larger than the one above )

variable atemp equal temp
fix temp_info all ave/time 10 200 2000 v_atemp file temperature.dat

#The cutoff used for pairwise computation (any pair style) and the
#associated neighbor list is the maximum cutoff that any compute
#can use. Atoms don't know any info about their neighbors
#further away than that.

# compute coord number
compute coor12 Si coord/atom cutoff 2.5 group O
compute coor11 Si coord/atom cutoff 2.5 group Si
compute coor22 O coord/atom cutoff 2.0 group O

compute sumcoor12 all reduce ave c_coor12
compute sumcoor11 all reduce ave c_coor11
compute sumcoor22 all reduce ave c_coor22


fix 12coord all ave/time  10 200 2000 c_sumcoor12 file Si-O_coord_number.dat
fix 11coord all ave/time  10 200 2000  c_sumcoor11 file Si-Si_coord_number.dat
fix 22coord all ave/time  10 200 2000  c_sumcoor22 file O-O_coord_number.dat




# unit cell information
variable avol equal vol
variable alx equal lx
variable aly equal ly
variable alz equal lz
fix cell_info all ave/time 10 200 2000 v_avol v_alx v_aly v_alz file cell_volume.dat


fix potential_info all ave/time 10 200 2000 v_apot file potential-energy.dat
thermo 1000



velocity all create 6000 283763 mom yes rot no dist gaussian
fix npt1 all npt temp 6000 5000 0.1 iso 0 0  1
timestep 0.001
#run 500
run 80000
Neighbor list info ...
  update: every = 1 steps, delay = 1 steps, check = yes
  max neighbors/atom: 2000, page size: 100000
  master list distance cutoff = 4.8
  ghost atom cutoff = 4.8
  binsize = 2.4, bins = 6 6 6
  4 neighbor lists, perpetual/occasional/extra = 1 3 0
  (1) pair tersoff, perpetual
      attributes: full, newton on
      pair build: full/bin
      stencil: full/bin/3d
      bin: standard
  (2) compute coord/atom, occasional, copy from (1)
      attributes: full, newton on
      pair build: copy
      stencil: none
      bin: none
  (3) compute coord/atom, occasional, copy from (1)
      attributes: full, newton on
      pair build: copy
      stencil: none
      bin: none
  (4) compute coord/atom, occasional, copy from (1)
      attributes: full, newton on
      pair build: copy
      stencil: none
      bin: none
Per MPI rank memory allocation (min/avg/max) = 6.021 | 6.021 | 6.021 Mbytes
   Step          Temp          E_pair         E_mol          TotEng         Press          Volume    
         0   6000          -638.06385      0             -564.38556      73800.118      2095.6304    
      1000   6056.8788     -569.29296      0             -494.91622      26627.335      2199.2197    
      2000   6578.0396     -547.11862      0             -466.34218      2153.6403      2360.857     
      3000   7718.4724     -551.07746      0             -456.29682      14353.625      2173.4803    
      4000   6420.9459     -527.71391      0             -448.86653     -8738.267       2294.3113    
      5000   5556.6918     -538.9711       0             -470.73652      36154.354      1882.1772    
      6000   5725.0595     -530.46949      0             -460.1674      -4179.3694      1990.3193    
      7000   5833.8172     -524.11196      0             -452.47436     -1474.8629      2082.5028    
      8000   5647.4022     -533.51115      0             -464.16267      973.88502      1856.0895    
      9000   5340.681      -530.94065      0             -465.35861      1549.3808      1602.0443    
     10000   6404.1293     -530.71068      0             -452.0698      -166.09224      1578.1235    
     11000   6978.4153     -528.32245      0             -442.62951      23459.72       1660.6049    
     12000   6179.7501     -540.35287      0             -464.46731      26936.483      1424.8915    
     13000   5853.3193     -527.84587      0             -455.96878     -12542.201      1561.6977    
     14000   5844.3439     -530.85527      0             -459.0884      -20557.384      1530.6292    
     15000   6133.0751     -535.08218      0             -459.76978     -48558.834      1550.0393    
     16000   5422.5778     -524.94457      0             -458.35687      32643.656      1452.4647    
     17000   5425.0154     -530.46909      0             -463.85145     -57600.206      1444.7826    
     18000   5341.3534     -534.7903       0             -469.20001     -1283.3905      1486.2291    
     19000   6993.1218     -521.27062      0             -435.39709      6925.4587      1591.4952    
     20000   6010.934      -533.74873      0             -459.93618      68981.156      1636.5248    
     21000   6408.2217     -535.00067      0             -456.30954      23540.25       1644.5059    
     22000   6634.2325     -523.91692      0             -442.45044     -49729.055      1704.3668    
     23000   6002.8975     -533.07598      0             -459.36212     -4434.8838      1823.5192    
     24000   6123.9383     -541.25332      0             -466.05311      45548.537      1733.6764    
     25000   5610.6873     -543.81839      0             -474.92076      44080.824      1608.0221    
     26000   5535.0667     -548.1531       0             -480.18407     -29717.594      1616.1572    
     27000   4888.4447     -543.92818      0             -483.89948      37550.795      1557.6206    
     28000   5439.7693     -544.84023      0             -478.04142      2338.0902      1639.7369    
     29000   5527.4399     -546.92946      0             -479.05409      3652.07        1561.458     
     30000   5886.5841     -533.5728       0             -461.28723     -5196.2202      1626.1537    
     31000   5677.2893     -542.11401      0             -472.39852     -36861.368      1643.3311    
     32000   5662.0105     -542.17225      0             -472.64438      30933.095      1457.012     
     33000   5181.7427     -537.54224      0             -473.91192     -36686.527      1434.7196    
     34000   5067.2596     -542.20572      0             -479.98122     -20420.053      1594.7035    
     35000   5328.9468     -533.62516      0             -468.18722      14843.629      1437.1589    
     36000   5850.1234     -547.79983      0             -475.96199     -14531.746      1434.339     
     37000   5635.7696     -543.41565      0             -474.21002      21023.478      1420.2585    
     38000   5120.8873     -530.60878      0             -467.72575      914.08727      1452.3953    
     39000   5869.0394     -538.69876      0             -466.62864      27151.722      1583.035     
     40000   5684.3567     -538.43919      0             -468.63692      15738.814      1479.0448    
     41000   5246.903      -544.49294      0             -480.06247     -32094.827      1508.4913    
     42000   5307.6734     -546.97281      0             -481.7961       6418.5602      1412.2943    
     43000   5341.7789     -540.40441      0             -474.8089       9293.8156      1463.8405    
     44000   5644.3845     -542.47148      0             -473.16005      43869.074      1359.0631    
     45000   5156.5207     -550.429        0             -487.1084      -11781.271      1498.7363    
     46000   4681.9002     -542.68928      0             -485.19689     -45215.708      1513.3236    
     47000   5610.1476     -551.99507      0             -483.10406     -6703.0866      1445.3348    
     48000   5909.637      -538.1529       0             -465.58425      6203.3684      1459.7732    
     49000   5658.0445     -543.34786      0             -473.86869     -39305.939      1429.4749    
     50000   4740.8432     -539.30265      0             -481.08645      45183.676      1436.8348    
     51000   6430.5493     -555.69426      0             -476.72896      9411.3975      1469.4229    
     52000   5582.5162     -551.41887      0             -482.86717     -5771.4372      1516.1578    
     53000   5563.108      -557.97475      0             -489.66138     -11313.202      1314.8222    
     54000   5096.2477     -543.60368      0             -481.02321     -24222.378      1321.9644    
     55000   5418.6077     -549.13871      0             -482.59976     -21387.676      1414.0427    
     56000   4756.5051     -550.22959      0             -491.82107      90292.109      1296.7655    
     57000   5743.6546     -540.84253      0             -470.3121       25220.184      1273.1344    
     58000   5975.2566     -550.08064      0             -476.7062      -11747.913      1512.5355    
     59000   5256.8019     -543.72827      0             -479.17624      6211.6208      1344.3645    
     60000   4419.2853     -551.64954      0             -497.38198      11306.211      1529.31      
     61000   5319.6979     -538.88008      0             -473.55572      16015.707      1634.1873    
     62000   4855.1094     -549.23193      0             -489.61258     -37077.46       1664.3543    
     63000   4665.7        -552.69521      0             -495.40175     -9171.0291      1673.5084    
     64000   5479.9071     -552.33687      0             -485.04518     -22213.392      1581.7589    
     65000   5506.5707     -556.0117       0             -488.39258      32916.951      1570.247     
     66000   4448.6309     -559.69496      0             -505.06705     -20205.516      1633.3019    
     67000   5381.6822     -546.59879      0             -480.51327      28385.547      1581.5631    
     68000   4926.913      -551.3489       0             -490.84782      15522.396      1469.1832    
     69000   5700.8133     -549.34795      0             -479.3436      -16187.512      1535.522     
     70000   5719.6411     -548.72741      0             -478.49185      11837.623      1402.6035    
     71000   5132.1944     -537.7405       0             -474.71862      371.56501      1385.6919    
     72000   4952.191      -547.25217      0             -486.44068     -21842.123      1462.5249    
     73000   4695.8824     -556.45904      0             -498.79495      7459.0527      1469.7433    
     74000   4572.7366     -544.79019      0             -488.63829     -26282.016      1572.3022    
     75000   5569.0723     -551.77871      0             -483.39209      6810.2738      1563.5465    
     76000   5243.3399     -549.77944      0             -485.39272      39416.84       1517.806     
     77000   5297.258      -553.08574      0             -488.03693     -691.58268      1582.2766    
     78000   5066.9879     -561.84691      0             -499.62575      59881.151      1596.5367    
     79000   5045.2192     -565.61528      0             -503.66143      7513.2363      1564.9369    
     80000   5018.1029     -559.26181      0             -497.64095      45821.689      1380.004     
Loop time of 6.90234 on 1 procs for 80000 steps with 96 atoms

Performance: 1001.399 ns/day, 0.024 hours/ns, 11590.266 timesteps/s, 1.113 Matom-step/s
99.1% CPU use with 1 MPI tasks x no OpenMP threads

MPI task timing breakdown:
Section |  min time  |  avg time  |  max time  |%varavg| %total
---------------------------------------------------------------
Pair    | 5.7318     | 5.7318     | 5.7318     |   0.0 | 83.04
Bond    | 0.0026937  | 0.0026937  | 0.0026937  |   0.0 |  0.04
Neigh   | 0.45979    | 0.45979    | 0.45979    |   0.0 |  6.66
Comm    | 0.20928    | 0.20928    | 0.20928    |   0.0 |  3.03
Output  | 0.0097817  | 0.0097817  | 0.0097817  |   0.0 |  0.14
Modify  | 0.4535     | 0.4535     | 0.4535     |   0.0 |  6.57
Other   |            | 0.03546    |            |       |  0.51

Nlocal:             96 ave          96 max          96 min
Histogram: 1 0 0 0 0 0 0 0 0 0
Nghost:            526 ave         526 max         526 min
Histogram: 1 0 0 0 0 0 0 0 0 0
Neighs:              0 ave           0 max           0 min
Histogram: 1 0 0 0 0 0 0 0 0 0
FullNghs:         3096 ave        3096 max        3096 min
Histogram: 1 0 0 0 0 0 0 0 0 0

Total # of neighbors = 3096
Ave neighs/atom = 32.25
Ave special neighs/atom = 0
Neighbor list builds = 3740
Dangerous builds = 0

fix npt1 all npt temp 5000 4000 0.1 iso 0 0 1
run 80000
Per MPI rank memory allocation (min/avg/max) = 8.549 | 8.549 | 8.549 Mbytes
   Step          Temp          E_pair         E_mol          TotEng         Press          Volume    
     80000   5018.1029     -559.26181      0             -497.64095      45821.689      1380.004     
     81000   5336.3644     -541.31646      0             -475.78744      78971.066      1516.9228    
     82000   4799.6663     -560.35967      0             -501.42114     -7769.1146      1590.1635    
     83000   5313.3012     -551.57827      0             -486.33246      965.46678      1643.4809    
     84000   5107.9618     -551.73764      0             -489.01333      13845.615      1595.2655    
     85000   5074.4485     -560.03745      0             -497.72467     -1743.7161      1582.9908    
     86000   5697.4105     -567.6706       0             -497.70803     -1811.1905      1558.6969    
     87000   4942.7782     -547.38749      0             -486.69159     -9592.5015      1752.8641    
     88000   5160.7458     -561.0088       0             -497.63632      38190.32       1536.1844    
     89000   4429.7045     -557.42326      0             -503.02775     -24009.335      1526.6335    
     90000   5123.6732     -555.67581      0             -492.75857      33650.2        1495.0174    
     91000   5192.4168     -548.92058      0             -485.15919     -5463.1802      1560.2135    
     92000   4752.9154     -551.56245      0             -493.19801      3436.3066      1632.601     
     93000   5375.6187     -556.99351      0             -490.98245      1171.7145      1536.8791    
     94000   4653.9624     -560.39608      0             -503.24675     -13957.915      1511.58      
     95000   4895.42       -560.27862      0             -500.16426      7143.6867      1585.1243    
     96000   5035.1527     -556.81913      0             -494.9889      -51914.262      1658.6647    
     97000   4431.0543     -557.51992      0             -503.10784      45004.986      1453.8585    
     98000   4623.3728     -556.52977      0             -499.75607     -4531.6839      1474.9502    
     99000   5325.0516     -551.18735      0             -485.79724      27096.046      1468.013     
    100000   4527.5878     -557.12958      0             -501.5321       30923.09       1503.5607    
    101000   4830.9267     -560.54572      0             -501.22332      54916.731      1499.5733    
    102000   5173.8        -550.52668      0             -486.9939       11381.706      1526.3197    
    103000   4415.4592     -564.85271      0             -510.63214     -3658.5219      1524.3665    
    104000   3839.7063     -568.87581      0             -521.72531      4599.2758      1428.8176    
    105000   4931.7097     -554.67339      0             -494.11341      51110.296      1471.8507    
    106000   4399.8106     -564.05491      0             -510.02649     -47454.44       1507.4574    
    107000   4990.5834     -563.71846      0             -502.43552     -19474.651      1339.1024    
    108000   4301.4007     -566.10568      0             -513.28572     -12465.719      1416.5327    
    109000   4463.0827     -571.89346      0             -517.08808      17834.594      1414.945     
    110000   4084.0739     -557.9056       0             -507.75434      13715.566      1386.1352    
    111000   4772.8899     -561.09652      0             -502.4868      -20319.819      1477.9421    
    112000   4201.9544     -574.91397      0             -523.31517      37076.097      1382.6661    
    113000   4510.809      -559.68344      0             -504.292        25282.554      1418.5632    
    114000   5297.1731     -563.02625      0             -497.97848      2280.1521      1419.1271    
    115000   4471.9636     -567.93019      0             -513.01576      21458.19       1377.2491    
    116000   4038.2613     -556.98607      0             -507.39738     -18036.997      1440.9536    
    117000   4608.0105     -567.37962      0             -510.79457      6898.5429      1512.3554    
    118000   4526.2931     -568.81407      0             -513.23249     -50388.02       1595.8863    
    119000   4195.2869     -563.93386      0             -512.41693     -33806.881      1484.8849    
    120000   4229.3716     -571.53255      0             -519.59708      8937.924       1446.5234    
    121000   4578.4406     -563.47322      0             -507.25128      7315.271       1443.4353    
    122000   4806.4201     -558.15166      0             -499.1302      -14209.327      1484.8482    
    123000   4443.6977     -566.35128      0             -511.78395     -37823.46       1467.2191    
    124000   4496.4073     -565.8877       0             -510.6731      -26108.149      1547.9896    
    125000   4219.0353     -571.14529      0             -519.33674     -45026.305      1540.923     
    126000   3741.6719     -559.81367      0             -513.86701      12130.524      1504.7733    
    127000   4032.7028     -558.21639      0             -508.69596     -22910.071      1550.5452    
    128000   4260.5262     -566.80511      0             -514.48707      37735.349      1362.5642    
    129000   4581.8416     -566.06006      0             -509.79635     -8876.4625      1519.1879    
    130000   3635.8962     -566.92457      0             -522.27681     -2506.448       1551.8163    
    131000   4049.7531     -576.16438      0             -526.43457     -20101.345      1563.0004    
    132000   4110.9548     -563.73519      0             -513.25384      3728.8069      1525.7043    
    133000   4343.7749     -572.01814      0             -518.67783      66007.691      1529.6492    
    134000   4656.8109     -565.83595      0             -508.65164      8524.6008      1504.5747    
    135000   4712.3991     -564.86762      0             -507.00071      17185.907      1454.8445    
    136000   3978.2762     -567.23503      0             -518.38294     -2859.6971      1424.353     
    137000   4313.4449     -569.56429      0             -516.59642      8892.4698      1474.9444    
    138000   4464.4109     -569.82261      0             -515.00092     -43196.337      1550.4454    
    139000   4287.5243     -568.62262      0             -515.97305      23251.01       1600.6915    
    140000   4507.508      -577.10089      0             -521.74998      5172.1825      1472.3519    
    141000   3850.3676     -573.54329      0             -526.26188     -11506.052      1472.2321    
    142000   4728.1125     -569.71032      0             -511.65046      26783.83       1519.1182    
    143000   3766.8007     -568.66242      0             -522.40718      28262.024      1505.225     
    144000   4317.7363     -571.75403      0             -518.73346     -35864.087      1521.0913    
    145000   4572.1572     -576.21925      0             -520.07447      62481.413      1373.5738    
    146000   3646.4858     -569.44449      0             -524.66668      22288.973      1432.239     
    147000   3758.6036     -559.89924      0             -513.74466     -58475.7        1570.1099    
    148000   3828.5718     -565.7385       0             -518.72473      31141.477      1524.3604    
    149000   4332.586      -569.6079       0             -516.40498      2370.8843      1561.7158    
    150000   4098.3808     -569.81266      0             -519.48572      28745.735      1479.728     
    151000   3811.718      -574.09646      0             -527.28965     -27640.378      1581.7303    
    152000   4148.5018     -571.88401      0             -520.94159      15146.189      1573.6438    
    153000   4068.4099     -566.06237      0             -516.10346     -10501.409      1630.9034    
    154000   4518.7189     -581.03831      0             -525.54974      29808.418      1502.4638    
    155000   3681.6438     -576.91665      0             -531.70712     -10445.03       1517.2324    
    156000   3628.6587     -572.22903      0             -527.67014     -4831.756       1559.0731    
    157000   4339.238      -572.50807      0             -519.22347      41410.976      1566.2433    
    158000   3552.4142     -576.92469      0             -533.30206      43009.954      1557.4998    
    159000   3882.3985     -570.1218       0             -522.44706      5342.2376      1521.4675    
    160000   3885.2864     -573.35948      0             -525.64928      10332.258      1503.7395    
Loop time of 6.64851 on 1 procs for 80000 steps with 96 atoms

Performance: 1039.631 ns/day, 0.023 hours/ns, 12032.762 timesteps/s, 1.155 Matom-step/s
99.3% CPU use with 1 MPI tasks x no OpenMP threads

MPI task timing breakdown:
Section |  min time  |  avg time  |  max time  |%varavg| %total
---------------------------------------------------------------
Pair    | 5.5537     | 5.5537     | 5.5537     |   0.0 | 83.53
Bond    | 0.0028599  | 0.0028599  | 0.0028599  |   0.0 |  0.04
Neigh   | 0.41036    | 0.41036    | 0.41036    |   0.0 |  6.17
Comm    | 0.19615    | 0.19615    | 0.19615    |   0.0 |  2.95
Output  | 0.0094798  | 0.0094798  | 0.0094798  |   0.0 |  0.14
Modify  | 0.44166    | 0.44166    | 0.44166    |   0.0 |  6.64
Other   |            | 0.03433    |            |       |  0.52

Nlocal:             96 ave          96 max          96 min
Histogram: 1 0 0 0 0 0 0 0 0 0
Nghost:            475 ave         475 max         475 min
Histogram: 1 0 0 0 0 0 0 0 0 0
Neighs:              0 ave           0 max           0 min
Histogram: 1 0 0 0 0 0 0 0 0 0
FullNghs:         2776 ave        2776 max        2776 min
Histogram: 1 0 0 0 0 0 0 0 0 0

Total # of neighbors = 2776
Ave neighs/atom = 28.916667
Ave special neighs/atom = 0
Neighbor list builds = 3294
Dangerous builds = 0

fix npt1 all npt temp 4000 4000 0.1 iso 0 0 1
run 80000
Per MPI rank memory allocation (min/avg/max) = 8.549 | 8.549 | 8.549 Mbytes
   Step          Temp          E_pair         E_mol          TotEng         Press          Volume    
    160000   3885.2864     -573.35948      0             -525.64928      10332.258      1503.7395    
    161000   4281.8641     -576.89059      0             -524.31052      64185.994      1539.849     
    162000   3778.0001     -577.87907      0             -531.48631      6181.7563      1568.3311    
    163000   3767.541      -577.68174      0             -531.41741     -54545.684      1582.3024    
    164000   4845.0778     -573.8262       0             -514.33003      357.4723       1582.7782    
    165000   3852.268      -580.30885      0             -533.0041      -32605.054      1620.2091    
    166000   4960.8217     -578.38832      0             -517.47085     -16924.38       1627.4073    
    167000   4023.2397     -574.08489      0             -524.68066     -19027.837      1588.4364    
    168000   4107.84       -576.13793      0             -525.69483      11067.135      1567.2677    
    169000   4111.9142     -577.71837      0             -527.22524      66069.181      1517.3096    
    170000   4088.682      -571.94207      0             -521.73423     -3660.2365      1539.4734    
    171000   3817.5831     -579.57704      0             -532.69821     -29649.78       1524.8647    
    172000   4344.9944     -576.68099      0             -523.3257       20182.255      1546.3363    
    173000   3932.8495     -574.84592      0             -526.55165     -31172.399      1512.2574    
    174000   4499.2622     -577.78902      0             -522.53937      12136.914      1528.3981    
    175000   3965.4815     -579.09845      0             -530.40347     -8314.3933      1591.8674    
    176000   4676.9112     -572.04625      0             -514.61512     -28396.869      1613.285     
    177000   4142.5713     -578.56318      0             -527.69359     -43737.093      1553.7799    
    178000   4070.4741     -580.81559      0             -530.83134     -33469.304      1508.8939    
    179000   4443.2447     -574.41562      0             -519.85384      11168.747      1497.1137    
    180000   3519.3813     -575.05383      0             -531.83683      10216.254      1555.3211    
    181000   3944.6438     -572.73994      0             -524.30084     -15833.943      1548.7507    
    182000   4295.0846     -576.10858      0             -523.36617     -3644.2661      1514.45      
    183000   3881.1195     -580.24382      0             -532.58479     -13135.431      1511.4593    
    184000   3913.3492     -582.32505      0             -534.27024     -6895.1289      1521.4484    
    185000   4134.6266     -577.34773      0             -526.5757      -23848.75       1529.431     
    186000   4167.7799     -578.10779      0             -526.92864      13315.286      1532.2913    
    187000   3821.6057     -581.60795      0             -534.67973      32540.06       1506.6127    
    188000   3743.2617     -562.49115      0             -516.52496     -11008.258      1513.1037    
    189000   3758.4151     -581.28746      0             -535.1352      -28536.893      1573.8201    
    190000   4086.3906     -572.5055       0             -522.32579      4987.6387      1574.3347    
    191000   3990.7281     -581.06844      0             -532.06344      16669.052      1583.0282    
    192000   4503.4387     -578.00762      0             -522.70668     -30227.798      1609.4188    
    193000   4017.6409     -583.09978      0             -533.7643       22728.988      1534.0155    
    194000   4067.7805     -571.301        0             -521.34982      38809.538      1542.264     
    195000   3774.3947     -575.4593       0             -529.11081     -12958.712      1597.5505    
    196000   4098.2795     -583.20081      0             -532.87511     -29066.252      1566.6075    
    197000   4081.785      -577.4058       0             -527.28265     -8427.7472      1549.8176    
    198000   4404.4478     -580.49357      0             -526.40821      7649.4486      1618.6367    
    199000   4774.6342     -569.51739      0             -510.88624      1111.5869      1663.8791    
    200000   4456.6924     -576.1335       0             -521.4066      -12007.938      1654.9548    
    201000   3636.4592     -576.57051      0             -531.91583     -49825.251      1616.8088    
    202000   4423.9472     -574.82244      0             -520.49764     -25014.541      1618.9559    
    203000   4590.1545     -572.34929      0             -515.98351      25045.093      1609.7633    
    204000   4091.6884     -570.77351      0             -520.52875     -3737.1144      1606.2901    
    205000   3777.1381     -576.64628      0             -530.2641      -26354.446      1628.3197    
    206000   3692.5039     -581.95548      0             -536.61259     -9778.5434      1572.0507    
    207000   4275.8519     -573.75884      0             -521.2526      -28374.873      1528.94      
    208000   3791.7882     -567.55349      0             -520.99142      26108.884      1481.1555    
    209000   4011.2906     -571.70785      0             -522.45035      74484.12       1423.0269    
    210000   3480.4489     -584.18316      0             -541.44425     -2907.4242      1515.9303    
    211000   4389.9599     -574.64069      0             -520.73324     -7629.9547      1493.8574    
    212000   4323.3934     -581.77638      0             -528.68635      27283.945      1496.5041    
    213000   3716.7872     -571.05768      0             -525.4166       10648.193      1540.2078    
    214000   4303.8612     -570.26725      0             -517.41707     -38910.913      1560.2748    
    215000   3482.675      -576.69702      0             -533.93077     -30856.44       1513.7664    
    216000   3905.3153     -580.22345      0             -532.2673       26958.406      1412.9731    
    217000   3709.3774     -571.83784      0             -526.28775      10685.558      1465.3432    
    218000   3946.9533     -577.81979      0             -529.35233     -26962.697      1407.1062    
    219000   4359.7857     -566.20778      0             -512.67086     -16989.193      1467.728     
    220000   4165.6542     -578.90238      0             -527.74934      14864.104      1466.4724    
    221000   4551.6896     -570.83727      0             -514.94382      35468.769      1372.8647    
    222000   4306.591      -576.59371      0             -523.71        -2238.3934      1449.4707    
    223000   3861.1221     -574.92943      0             -527.51596      35800.146      1424.3584    
    224000   4587.6209     -565.48726      0             -509.15259      34187.455      1443.3935    
    225000   4002.6147     -576.20468      0             -527.05372     -17688.848      1491.2138    
    226000   3604.9186     -581.48696      0             -537.21959      30692.146      1439.9442    
    227000   4311.3365     -575.50624      0             -522.56427      14038.841      1422.1934    
    228000   3606.917      -579.12219      0             -534.83028     -49007.158      1510.0751    
    229000   4734.594      -579.4556       0             -521.31614      15449.926      1482.4919    
    230000   3404.7872     -572.3644       0             -530.55458      659.33479      1493.4827    
    231000   3407.5381     -579.61665      0             -537.77306     -35210.777      1442.2705    
    232000   4259.2627     -577.22305      0             -524.92052      60653.853      1333.0851    
    233000   4152.6895     -573.84852      0             -522.85468      47910.988      1435.5082    
    234000   3611.5171     -575.62434      0             -531.27594     -21870.05       1498.6399    
    235000   3850.1548     -573.64203      0             -526.36323      599.48208      1447.0787    
    236000   3462.9388     -579.16078      0             -536.63688      42488.131      1499.7517    
    237000   3822.4279     -570.02049      0             -523.08217     -16932.367      1498.156     
    238000   4285.6382     -581.45467      0             -528.82826     -26776.199      1513.7016    
    239000   2837.9055     -571.5177       0             -536.66903     -32144.42       1550.4306    
    240000   4166.213      -570.99147      0             -519.83157     -17813.653      1556.8125    
Loop time of 6.40194 on 1 procs for 80000 steps with 96 atoms

Performance: 1079.673 ns/day, 0.022 hours/ns, 12496.215 timesteps/s, 1.200 Matom-step/s
99.4% CPU use with 1 MPI tasks x no OpenMP threads

MPI task timing breakdown:
Section |  min time  |  avg time  |  max time  |%varavg| %total
---------------------------------------------------------------
Pair    | 5.3506     | 5.3506     | 5.3506     |   0.0 | 83.58
Bond    | 0.0027836  | 0.0027836  | 0.0027836  |   0.0 |  0.04
Neigh   | 0.38075    | 0.38075    | 0.38075    |   0.0 |  5.95
Comm    | 0.19181    | 0.19181    | 0.19181    |   0.0 |  3.00
Output  | 0.0091735  | 0.0091735  | 0.0091735  |   0.0 |  0.14
Modify  | 0.43373    | 0.43373    | 0.43373    |   0.0 |  6.77
Other   |            | 0.03314    |            |       |  0.52

Nlocal:             96 ave          96 max          96 min
Histogram: 1 0 0 0 0 0 0 0 0 0
Nghost:            464 ave         464 max         464 min
Histogram: 1 0 0 0 0 0 0 0 0 0
Neighs:              0 ave           0 max           0 min
Histogram: 1 0 0 0 0 0 0 0 0 0
FullNghs:         2694 ave        2694 max        2694 min
Histogram: 1 0 0 0 0 0 0 0 0 0

Total # of neighbors = 2694
Ave neighs/atom = 28.0625
Ave special neighs/atom = 0
Neighbor list builds = 3080
Dangerous builds = 0

fix npt1 all npt temp 4000 3000 0.1 iso 0 0  1
run 80000
Per MPI rank memory allocation (min/avg/max) = 8.549 | 8.549 | 8.549 Mbytes
   Step          Temp          E_pair         E_mol          TotEng         Press          Volume    
    240000   4166.213      -570.99147      0             -519.83157     -17813.653      1556.8125    
    241000   4146.876      -580.14807      0             -529.22561     -5949.1476      1514.0815    
    242000   4717.4815     -574.87356      0             -516.94424      34000.945      1445.2165    
    243000   3942.2973     -571.16563      0             -522.75535     -43383.737      1457.4639    
    244000   3905.3294     -579.29176      0             -531.33543     -15407.755      1477.2132    
    245000   3983.4572     -580.92204      0             -532.00633     -39921.552      1502.5728    
    246000   4728.6948     -569.28261      0             -511.21559     -13251.658      1453.275     
    247000   3835.2559     -567.20219      0             -520.10634     -12985.981      1402.3518    
    248000   4461.7812     -579.0814       0             -524.292       -10700.732      1403.9482    
    249000   3694.9123     -577.89528      0             -532.52281     -31674.387      1401.0441    
    250000   4780.4573     -569.89612      0             -511.19348      29237.08       1391.0827    
    251000   3994.1052     -579.20741      0             -530.16094      37060.894      1358.1463    
    252000   3929.095      -572.66117      0             -524.413        20207.915      1382.4245    
    253000   3736.5204     -580.04476      0             -534.16136     -12739.103      1404.3798    
    254000   4097.1617     -581.44047      0             -531.1285       14896.042      1403.9148    
    255000   4054.2139     -589.26219      0             -539.4776       15829.711      1368.1319    
    256000   3691.1297     -578.3888       0             -533.06278     -13095.951      1389.0074    
    257000   3413.8626     -576.61148      0             -534.69022      3925.431       1426.8863    
    258000   3790.9393     -579.96993      0             -533.41828     -31301.816      1435.8824    
    259000   3826.9942     -584.80665      0             -537.81225      10587.47       1400.2861    
    260000   4069.203      -574.43237      0             -524.46373      2124.8843      1354.1004    
    261000   3743.6252     -576.28253      0             -530.31188      8378.2868      1355.8286    
    262000   3369.7161     -584.48979      0             -543.11064      61736.772      1423.6654    
    263000   4065.2914     -575.99856      0             -526.07795     -47328.626      1407.2934    
    264000   3425.0309     -580.14093      0             -538.08253      18717.601      1475.3688    
    265000   3693.4303     -576.84763      0             -531.49336     -23279.227      1446.8148    
    266000   3412.3917     -582.73797      0             -540.83478      19859.57       1472.0454    
    267000   3473.5672     -578.70665      0             -536.05224     -17146.158      1438.1235    
    268000   2881.9775     -578.69908      0             -543.30922     -8967.1527      1447.9824    
    269000   3518.6991     -575.75913      0             -532.55051      20964.235      1417.6478    
    270000   3870.5347     -571.53211      0             -524.00305     -15304.58       1336.851     
    271000   3651.0518     -577.03873      0             -532.20485      81012.553      1364.8507    
    272000   3373.9742     -579.28251      0             -537.85107      29044.271      1444.4813    
    273000   3526.1773     -576.21911      0             -532.91867      47284.249      1407.1888    
    274000   3763.1224     -577.11183      0             -530.90177     -39138.936      1422.623     
    275000   3656.4736     -585.39759      0             -540.49714      35862.291      1370.1965    
    276000   3034.5284     -572.53422      0             -535.27108     -15278.141      1364.1773    
    277000   3677.7515     -574.44831      0             -529.28658     -27056.335      1454.5639    
    278000   3571.3811     -586.23555      0             -542.38001      38946.991      1417.8154    
    279000   3449.0823     -577.21855      0             -534.8648       11683.116      1429.2546    
    280000   3161.4614     -576.56957      0             -537.74773     -11571.479      1455.2469    
    281000   3691.7861     -572.56812      0             -527.23405     -11429.125      1460.7987    
    282000   3605.4829     -579.79692      0             -535.52262     -35595.061      1357.1455    
    283000   3791.66       -584.03585      0             -537.47535     -25422.862      1389.7678    
    284000   3206.3647     -575.98825      0             -536.61501     -8851.551       1409.5983    
    285000   3147.6224     -576.47403      0             -537.82213      4523.051       1408.3869    
    286000   3560.6945     -581.55823      0             -537.83392      12071.308      1467.0276    
    287000   3318.593      -581.38936      0             -540.63799     -34279.716      1437.3813    
    288000   3324.8704     -581.43864      0             -540.61019      4646.4004      1359.3084    
    289000   3530.8789     -575.88334      0             -532.52516      33828.823      1346.0334    
    290000   3376.3094     -580.42753      0             -538.96742     -7982.9769      1318.0954    
    291000   4079.9602     -586.17879      0             -536.07804      7304.404       1290.4061    
    292000   3240.3552     -589.97403      0             -550.18339      1488.9003      1301.4016    
    293000   3831.4637     -586.27497      0             -539.2257      -26260.791      1340.3874    
    294000   3344.058      -588.35899      0             -547.29492     -9279.4646      1343.8354    
    295000   3367.667      -587.33245      0             -545.97846      21114.253      1364.3302    
    296000   3303.3932     -587.44302      0             -546.8783      -17101.215      1290.3963    
    297000   3370.7661     -583.41451      0             -542.02247      5471.8231      1279.9033    
    298000   3548.5809     -585.46431      0             -541.88875      24695.3        1245.816     
    299000   3425.9573     -588.48309      0             -546.41332      47698.673      1211.2176    
    300000   3493.2456     -582.9977       0             -540.10164     -12902.535      1281.8453    
    301000   3227.8081     -581.92717      0             -542.29061     -13932.545      1286.7544    
    302000   3583.6563     -590.27136      0             -546.26509      11744.845      1298.4846    
    303000   3424.3064     -582.73102      0             -540.68152      16950.53       1291.1182    
    304000   3428.1442     -581.83295      0             -539.73632     -4249.8654      1299.7829    
    305000   3087.8437     -585.80789      0             -547.89005      9466.7373      1290.27      
    306000   2997.3384     -578.08236      0             -541.2759       20303.652      1257.5279    
    307000   3169.2307     -586.4656       0             -547.54835     -22455.835      1310.6091    
    308000   2710.5473     -587.22343      0             -553.93869      3593.5026      1280.4953    
    309000   3019.2555     -583.7748       0             -546.69921     -25680.412      1280.7858    
    310000   3336.0731     -587.67044      0             -546.70441      5294.9403      1286.5366    
    311000   3362.9135     -590.30539      0             -549.00978      18394.849      1302.4909    
    312000   2938.186      -583.38442      0             -547.30433      1499.8926      1279.3222    
    313000   2857.0635     -582.30234      0             -547.21841     -16606.446      1326.7034    
    314000   2938.8518     -590.86115      0             -554.77289      43555.441      1319.177     
    315000   3187.7946     -581.08389      0             -541.93869      45145.647      1278.9287    
    316000   3093.9785     -588.20273      0             -550.20956      29323.153      1355.1007    
    317000   3014.0533     -586.96816      0             -549.95645      1126.2496      1318.1045    
    318000   3336.5489     -587.83093      0             -546.85907      498.79447      1284.374     
    319000   2396.083      -585.68409      0             -556.26088      5953.1202      1310.6122    
    320000   2891.4008     -591.75459      0             -556.24902     -30723.215      1300.4457    
Loop time of 6.79408 on 1 procs for 80000 steps with 96 atoms

Performance: 1017.357 ns/day, 0.024 hours/ns, 11774.966 timesteps/s, 1.130 Matom-step/s
99.3% CPU use with 1 MPI tasks x no OpenMP threads

MPI task timing breakdown:
Section |  min time  |  avg time  |  max time  |%varavg| %total
---------------------------------------------------------------
Pair    | 5.7363     | 5.7363     | 5.7363     |   0.0 | 84.43
Bond    | 0.0027946  | 0.0027946  | 0.0027946  |   0.0 |  0.04
Neigh   | 0.35862    | 0.35862    | 0.35862    |   0.0 |  5.28
Comm    | 0.20223    | 0.20223    | 0.20223    |   0.0 |  2.98
Output  | 0.0097592  | 0.0097592  | 0.0097592  |   0.0 |  0.14
Modify  | 0.45036    | 0.45036    | 0.45036    |   0.0 |  6.63
Other   |            | 0.03398    |            |       |  0.50

Nlocal:             96 ave          96 max          96 min
Histogram: 1 0 0 0 0 0 0 0 0 0
Nghost:            540 ave         540 max         540 min
Histogram: 1 0 0 0 0 0 0 0 0 0
Neighs:              0 ave           0 max           0 min
Histogram: 1 0 0 0 0 0 0 0 0 0
FullNghs:         3202 ave        3202 max        3202 min
Histogram: 1 0 0 0 0 0 0 0 0 0

Total # of neighbors = 3202
Ave neighs/atom = 33.354167
Ave special neighs/atom = 0
Neighbor list builds = 2789
Dangerous builds = 0

fix npt1 all npt temp 3000 3000 0.1 iso 0 0 1
run 80000
Per MPI rank memory allocation (min/avg/max) = 8.549 | 8.549 | 8.549 Mbytes
   Step          Temp          E_pair         E_mol          TotEng         Press          Volume    
    320000   2891.4008     -591.75459      0             -556.24902     -30723.215      1300.4457    
    321000   3198.2273     -585.5927       0             -546.31938      15157.03       1290.5622    
    322000   3199.7885     -590.7268       0             -551.43431      53060.354      1298.8006    
    323000   2919.4447     -593.44663      0             -557.59668     -3238.8982      1328.3653    
    324000   2363.0099     -584.27468      0             -555.25759      51399.608      1306.8587    
    325000   3306.2959     -585.24491      0             -544.64454      21327.163      1282.6842    
    326000   2950.0159     -586.59002      0             -550.36467      2980.6688      1315.0501    
    327000   2980.3343     -587.15307      0             -550.55542     -34040.374      1311.7684    
    328000   3190.0307     -583.95243      0             -544.77976      2434.5277      1290.2329    
    329000   2786.1349     -588.22411      0             -554.01117      34760.719      1298.8111    
    330000   2687.1452     -589.73836      0             -556.74099     -25387.86       1317.5375    
    331000   3172.2495     -585.33906      0             -546.38474      5419.6802      1297.4074    
    332000   2844.9028     -587.72012      0             -552.78553     -13746.905      1297.5289    
    333000   3024.2557     -581.48473      0             -544.34774     -50378.305      1378.5397    
    334000   2957.6599     -577.85186      0             -541.53264      3014.1846      1382.7755    
    335000   3106.2148     -587.07223      0             -548.9288      -28629.688      1295.774     
    336000   2793.9271     -587.13302      0             -552.82439     -17451.482      1273.6697    
    337000   2866.7945     -580.17712      0             -544.97371     -25302.507      1309.0442    
    338000   2980.3922     -586.66213      0             -550.06376     -29020.492      1383.6011    
    339000   3116.9617     -580.73377      0             -542.45837      28072.135      1380.5313    
    340000   3031.8599     -578.46664      0             -541.23627     -57532.021      1504.2978    
    341000   3488.9851     -589.41841      0             -546.57467     -15522.491      1448.5998    
    342000   3150.058      -586.50618      0             -547.82437      13351.42       1390.2065    
    343000   3247.053      -587.35362      0             -547.48074      57285.985      1342.5169    
    344000   2960.2511     -583.57557      0             -547.22453     -6233.8711      1385.1004    
    345000   2383.7776     -591.54695      0             -562.27484     -9915.147       1391.0904    
    346000   3450.8069     -586.31089      0             -543.93597      18482.981      1338.6955    
    347000   2821.7577     -582.8988       0             -548.24842      13031.111      1355.0421    
    348000   2974.5171     -584.83525      0             -548.30903      6860.9085      1373.1232    
    349000   3320.8456     -581.91728      0             -541.13824     -15041.575      1378.2348    
    350000   2733.399      -586.38027      0             -552.81492     -28520.312      1433.001     
    351000   2929.9457     -585.57809      0             -549.5992       60523.977      1364.4177    
    352000   3125.221      -590.39752      0             -552.0207       43534.845      1392.0029    
    353000   3120.0375     -590.19408      0             -551.88092     -17084.795      1381.4822    
    354000   3383.0741     -583.68654      0             -542.14336      21880.457      1395.7065    
    355000   2771.0804     -587.94559      0             -553.91752     -14829.526      1390.0965    
    356000   2896.4204     -582.35087      0             -546.78366     -33973.377      1415.8131    
    357000   2717.2187     -588.72369      0             -555.35703     -19466.222      1355.4073    
    358000   2818.9224     -580.5881       0             -545.97254      76228.209      1339.534     
    359000   2566.737      -593.63457      0             -562.11577     -16617.777      1404.943     
    360000   3119.4868     -589.32735      0             -551.02094      12375.975      1442.9213    
    361000   3226.6343     -588.30249      0             -548.68035      1534.0094      1413.9557    
    362000   3244.1651     -581.8578       0             -542.02038      17529.51       1412.348     
    363000   2790.8842     -584.01059      0             -549.73933      30008.736      1406.0681    
    364000   2590.492      -593.91544      0             -562.10494     -12613.805      1448.9175    
    365000   2858.195      -583.82402      0             -548.72621     -14963.184      1435.5878    
    366000   2765.1561     -585.30428      0             -551.34896     -9482.1967      1377.4875    
    367000   2805.4581     -592.46231      0             -558.01208      21649.042      1348.0004    
    368000   2699.9228     -583.70091      0             -550.54663     -4458.4215      1400.2401    
    369000   3225.0728     -594.28473      0             -554.68176      9281.77        1374.5741    
    370000   2859.4139     -592.28863      0             -557.17584      14190.879      1376.5799    
    371000   3321.4798     -589.09637      0             -548.30955     -14802.819      1395.902     
    372000   3046.8213     -594.28942      0             -556.87532     -15973.004      1406.7504    
    373000   2935.022      -592.57732      0             -556.53609     -26235.166      1414.8959    
    374000   3223.3783     -588.49841      0             -548.91625     -4581.3361      1424.0648    
    375000   3175.6415     -589.03622      0             -550.04025      6962.5547      1386.2393    
    376000   2366.2749     -591.34587      0             -562.28869     -14632.46       1384.2921    
    377000   2923.0633     -587.88812      0             -551.99373     -45598.841      1471.1488    
    378000   3343.7728     -593.11998      0             -552.0594      -29773.658      1434.9669    
    379000   3166.9985     -590.43625      0             -551.54642      21040.253      1377.2402    
    380000   2762.0656     -594.17336      0             -560.25598     -10759.433      1392.088     
    381000   2740.4992     -592.94385      0             -559.2913       1755.2024      1395.0951    
    382000   2620.1119     -587.90766      0             -555.73344     -22920.745      1416.0648    
    383000   3205.4636     -589.91084      0             -550.54867     -27839.833      1450.3502    
    384000   2744.3753     -584.76657      0             -551.06643      16035.461      1416.6275    
    385000   2790.0585     -591.77912      0             -557.518       -697.25388      1379.1637    
    386000   2963.1504     -587.69519      0             -551.30855     -51407.51       1446.2096    
    387000   2896.1039     -593.26611      0             -557.70278     -24730.672      1464.6403    
    388000   3187.9626     -589.86033      0             -550.71306     -22031.806      1450.0445    
    389000   2579.8859     -591.7307       0             -560.05044     -19323.969      1422.1546    
    390000   2986.1607     -592.21445      0             -555.54525      12821.072      1404.7282    
    391000   2750.5553     -594.47992      0             -560.70389     -10621.361      1458.9742    
    392000   2577.3572     -584.21707      0             -552.56786     -24904.165      1438.7473    
    393000   2888.0481     -591.99403      0             -556.52963     -6056.5127      1404.1857    
    394000   2472.0882     -596.13626      0             -565.77973     -9450.0314      1395.2586    
    395000   3032.8652     -589.23584      0             -551.99312     -25313.024      1432.8301    
    396000   3038.0401     -594.22824      0             -556.92197     -14533.706      1371.1935    
    397000   3189.0473     -590.9118       0             -551.75121     -7061.5904      1419.4782    
    398000   3026.9376     -588.1837       0             -551.01377      11339.455      1414.1279    
    399000   2686.9197     -589.33776      0             -556.34315     -6051.1273      1462.5673    
    400000   3453.0633     -588.23548      0             -545.83285     -38748.103      1475.8131    
Loop time of 6.7468 on 1 procs for 80000 steps with 96 atoms

Performance: 1024.486 ns/day, 0.023 hours/ns, 11857.476 timesteps/s, 1.138 Matom-step/s
99.4% CPU use with 1 MPI tasks x no OpenMP threads

MPI task timing breakdown:
Section |  min time  |  avg time  |  max time  |%varavg| %total
---------------------------------------------------------------
Pair    | 5.7228     | 5.7228     | 5.7228     |   0.0 | 84.82
Bond    | 0.0028828  | 0.0028828  | 0.0028828  |   0.0 |  0.04
Neigh   | 0.32757    | 0.32757    | 0.32757    |   0.0 |  4.86
Comm    | 0.20562    | 0.20562    | 0.20562    |   0.0 |  3.05
Output  | 0.009868   | 0.009868   | 0.009868   |   0.0 |  0.15
Modify  | 0.44407    | 0.44407    | 0.44407    |   0.0 |  6.58
Other   |            | 0.03402    |            |       |  0.50

Nlocal:             96 ave          96 max          96 min
Histogram: 1 0 0 0 0 0 0 0 0 0
Nghost:            508 ave         508 max         508 min
Histogram: 1 0 0 0 0 0 0 0 0 0
Neighs:              0 ave           0 max           0 min
Histogram: 1 0 0 0 0 0 0 0 0 0
FullNghs:         2820 ave        2820 max        2820 min
Histogram: 1 0 0 0 0 0 0 0 0 0

Total # of neighbors = 2820
Ave neighs/atom = 29.375
Ave special neighs/atom = 0
Neighbor list builds = 2505
Dangerous builds = 0

fix npt1 all npt temp 3000 2000 0.1 iso 0 0 1
run 80000
Per MPI rank memory allocation (min/avg/max) = 8.549 | 8.549 | 8.549 Mbytes
   Step          Temp          E_pair         E_mol          TotEng         Press          Volume    
    400000   3453.0633     -588.23548      0             -545.83285     -38748.103      1475.8131    
    401000   3165.2347     -586.87707      0             -548.00889     -14689.78       1478.3083    
    402000   3197.0294     -585.36495      0             -546.10634      37933.842      1414.0227    
    403000   2607.86       -584.40526      0             -552.38149      15476.338      1392.8269    
    404000   2998.4285     -585.31667      0             -548.49683      12360.072      1398.5303    
    405000   2804.6499     -590.55436      0             -556.11406      3903.6865      1381.2337    
    406000   3251.2643     -593.2985       0             -553.37391      18313.953      1355.1215    
    407000   2779.9343     -590.33583      0             -556.19903      13109.069      1410.7332    
    408000   2906.4069     -585.69117      0             -550.00133     -40788.172      1419.0553    
    409000   3423.5199     -594.1634       0             -552.12355      10738.54       1396.4308    
    410000   3136.3123     -592.36097      0             -553.84795      16235.888      1427.2149    
    411000   2660.5965     -594.92204      0             -562.25068      22699.927      1405.6282    
    412000   2679.335      -593.82696      0             -560.9255       37841.088      1389.9404    
    413000   2717.3806     -588.7077       0             -555.33904     -30656.09       1446.8359    
    414000   2547.3803     -594.29673      0             -563.01563     -35732.1        1455.2321    
    415000   2687.0251     -594.32801      0             -561.33211      750.0845       1396.879     
    416000   2829.3659     -590.82428      0             -556.08048      39889.573      1402.5614    
    417000   2378.1094     -588.4137       0             -559.2112      -2574.5082      1464.7912    
    418000   2910.5209     -593.15792      0             -557.41756     -2609.5274      1396.3208    
    419000   3125.7382     -589.94993      0             -551.56676      16141.045      1396.9333    
    420000   2987.1501     -595.18939      0             -558.50804     -7748.4124      1414.5362    
    421000   2674.2537     -593.49032      0             -560.65125      12923.315      1419.5311    
    422000   2526.5199     -592.55763      0             -561.53269      26723.393      1375.1527    
    423000   2587.5249     -596.93629      0             -565.16223      43850.744      1312.3958    
    424000   2618.9273     -593.03601      0             -560.87633     -2960.5987      1407.0413    
    425000   2810.8545     -594.75391      0             -560.23742      4392.9004      1358.8471    
    426000   2717.7281     -592.22301      0             -558.85008     -35255.668      1439.0638    
    427000   2774.264      -593.00477      0             -558.93761      4085.0961      1451.2589    
    428000   2313.5402     -595.84114      0             -567.43153     -8055.4462      1408.337     
    429000   2436.3224     -599.61688      0             -569.69954      37386.672      1368.7261    
    430000   2703.1625     -596.11202      0             -562.91795     -1950.7161      1392.4043    
    431000   2311.6994     -603.86366      0             -575.47665      12196.93       1387.7622    
    432000   2609.9554     -593.05472      0             -561.00522     -14668.018      1357.8218    
    433000   2730.6111     -601.82548      0             -568.29436     -17214.897      1389.5556    
    434000   2633.2343     -595.88502      0             -563.54965     -4703.9375      1382.154     
    435000   2630.8081     -599.47904      0             -567.17347      5018.2538      1392.3488    
    436000   2566.5688     -593.79646      0             -562.27973     -11401.263      1429.445     
    437000   2524.5596     -601.11258      0             -570.11171     -12139.569      1416.9489    
    438000   2442.8668     -598.61086      0             -568.61315      25301.925      1367.2836    
    439000   2918.2031     -598.0068       0             -562.1721       81482.959      1349.936     
    440000   2457.3705     -597.23913      0             -567.06332     -3254.5977      1368.4477    
    441000   2309.4485     -599.34469      0             -570.98532     -20351.159      1417.4989    
    442000   2654.6672     -596.94026      0             -564.3417      -11611.457      1453.8366    
    443000   2624.7449     -603.75935      0             -571.52823     -39757.163      1428.0107    
    444000   2569.7043     -594.65237      0             -563.09714      37749.512      1367.4163    
    445000   2644.4366     -598.20923      0             -565.73631      14007.142      1363.9056    
    446000   2174.0246     -598.12007      0             -571.42367      26900.595      1373.1664    
    447000   2143.3598     -604.01621      0             -577.69637     -18433.857      1404.304     
    448000   2513.7891     -600.28848      0             -569.41987     -22531.484      1412.9685    
    449000   2596.1615     -598.67226      0             -566.79214     -20698.534      1417.3297    
    450000   2383.0932     -602.89542      0             -573.63172      35412.517      1358.6062    
    451000   2448.3068     -604.27152      0             -574.20701      49950.957      1309.066     
    452000   2304.1744     -599.57457      0             -571.27996     -2429.9584      1347.1584    
    453000   2819.5527     -597.71335      0             -563.09005      21832.594      1394.4091    
    454000   2485.9344     -600.258        0             -569.73144      12663.039      1382.7832    
    455000   2321.3092     -600.35878      0             -571.85376      9221.9043      1334.2231    
    456000   1922.5421     -601.5519       0             -577.94363     -3391.9808      1370.1066    
    457000   2149.1825     -600.44464      0             -574.0533       31597.376      1387.6602    
    458000   2188.8976     -596.97911      0             -570.10008     -23971.875      1431.2626    
    459000   2313.6903     -600.13611      0             -571.72466     -19064.752      1440.0738    
    460000   2106.8513     -602.0986       0             -576.22707     -28235.404      1408.228     
    461000   2487.1663     -609.08221      0             -578.54052      31342.792      1344.7481    
    462000   2226.9716     -604.34656      0             -576.99999     -12820.301      1370.2373    
    463000   2054.7554     -601.39331      0             -576.1615      -11991.549      1394.4211    
    464000   2056.9249     -601.80827      0             -576.54982      18545.227      1389.6772    
    465000   2329.8289     -598.8401       0             -570.23047     -4525.4743      1382.7668    
    466000   2223.4237     -602.61375      0             -575.31074     -11660.241      1393.6851    
    467000   2183.5399     -597.56329      0             -570.75004      33005.013      1385.8399    
    468000   2027.0253     -601.98973      0             -577.09843     -1089.5659      1346.7017    
    469000   1991.5466     -603.0582       0             -578.60258     -13284.32       1368.5635    
    470000   1874.3406     -604.33539      0             -581.31903     -23747.707      1370.0505    
    471000   2205.7132     -601.16938      0             -574.08385     -26881.881      1391.3795    
    472000   2171.6784     -606.8447       0             -580.17711     -206.70619      1367.8276    
    473000   2065.5709     -602.66696      0             -577.30234     -21341.156      1390.1558    
    474000   1852.8982     -604.91347      0             -582.16042     -27690.593      1392.0249    
    475000   1815.2433     -600.63422      0             -578.34355     -10885.373      1380.6224    
    476000   1797.6749     -606.71064      0             -584.63571     -8700.2212      1364.757     
    477000   2004.7921     -603.99805      0             -579.37978     -15483.5        1348.9566    
    478000   1856.3418     -607.26813      0             -584.47279     -7475.5982      1378.3059    
    479000   2271.801      -606.41584      0             -578.51877      9949.0274      1353.4099    
    480000   1822.1285     -603.45676      0             -581.08154      227.0298       1352.0298    
Loop time of 6.52666 on 1 procs for 80000 steps with 96 atoms

Performance: 1059.040 ns/day, 0.023 hours/ns, 12257.412 timesteps/s, 1.177 Matom-step/s
99.2% CPU use with 1 MPI tasks x no OpenMP threads

MPI task timing breakdown:
Section |  min time  |  avg time  |  max time  |%varavg| %total
---------------------------------------------------------------
Pair    | 5.5492     | 5.5492     | 5.5492     |   0.0 | 85.02
Bond    | 0.0028771  | 0.0028771  | 0.0028771  |   0.0 |  0.04
Neigh   | 0.28961    | 0.28961    | 0.28961    |   0.0 |  4.44
Comm    | 0.20207    | 0.20207    | 0.20207    |   0.0 |  3.10
Output  | 0.0091777  | 0.0091777  | 0.0091777  |   0.0 |  0.14
Modify  | 0.44054    | 0.44054    | 0.44054    |   0.0 |  6.75
Other   |            | 0.03321    |            |       |  0.51

Nlocal:             96 ave          96 max          96 min
Histogram: 1 0 0 0 0 0 0 0 0 0
Nghost:            530 ave         530 max         530 min
Histogram: 1 0 0 0 0 0 0 0 0 0
Neighs:              0 ave           0 max           0 min
Histogram: 1 0 0 0 0 0 0 0 0 0
FullNghs:         3130 ave        3130 max        3130 min
Histogram: 1 0 0 0 0 0 0 0 0 0

Total # of neighbors = 3130
Ave neighs/atom = 32.604167
Ave special neighs/atom = 0
Neighbor list builds = 2231
Dangerous builds = 0

fix npt1 all npt temp 2000 2000 0.1 iso 0 0 1
run 80000
Per MPI rank memory allocation (min/avg/max) = 8.549 | 8.549 | 8.549 Mbytes
   Step          Temp          E_pair         E_mol          TotEng         Press          Volume    
    480000   1822.1285     -603.45676      0             -581.08154      227.0298       1352.0298    
    481000   1929.5072     -605.42816      0             -581.73436     -4341.288       1373.747     
    482000   2272.7514     -604.9884       0             -577.07966      5857.9232      1355.0692    
    483000   1976.768      -604.97236      0             -580.69822     -12282.607      1391.5927    
    484000   1914.3949     -608.06808      0             -584.55986      179.91209      1349.7579    
    485000   1858.2756     -610.3254       0             -587.50631     -12890.833      1397.6223    
    486000   1995.199      -607.3514       0             -582.85093     -13687.634      1404.1712    
    487000   2042.6162     -602.33161      0             -577.24886      11613.922      1330.7533    
    488000   1761.2873     -607.82187      0             -586.19377     -7474.9087      1388.2263    
    489000   2045.3363     -605.67062      0             -580.55447      9685.9523      1357.8783    
    490000   2240.8935     -607.69835      0             -580.18082      1629.6814      1382.2442    
    491000   2024.4469     -611.738        0             -586.87837     -6220.1019      1379.1824    
    492000   2091.7015     -605.2916       0             -579.60611     -1314.1851      1373.6008    
    493000   1864.9336     -603.90504      0             -581.00419     -44115.123      1407.8745    
    494000   2076.0835     -604.59497      0             -579.10126      1386.5044      1362.6514    
    495000   2025.6613     -604.54003      0             -579.66549      8430.1512      1371.9833    
    496000   1840.7326     -604.7139       0             -582.11023     -3534.1926      1375.8038    
    497000   2205.7439     -604.08834      0             -577.00244     -6652.2951      1370.7846    
    498000   1967.3888     -608.2847       0             -584.12573     -2317.6231      1370.8638    
    499000   1633.9196     -607.41124      0             -587.34717     -33675.136      1395.4451    
    500000   2075.404      -608.78284      0             -583.29748      20882.294      1374.3557    
    501000   2078.6703     -602.46309      0             -576.93761     -31594.119      1405.023     
    502000   2298.3223     -606.85136      0             -578.62862      11598.631      1374.9827    
    503000   2096.226      -607.63141      0             -581.89035     -36.589324      1394.8562    
    504000   2082.0956     -604.60697      0             -579.03943     -9938.4229      1403.8761    
    505000   2049.0081     -605.95181      0             -580.79058     -13282.512      1362.2744    
    506000   2064.0828     -605.28186      0             -579.93551     -5024.012       1384.0339    
    507000   1940.2132     -602.62038      0             -578.79512      16115.335      1401.7099    
    508000   1980.575      -607.2994       0             -582.97851     -9012.1234      1382.2016    
    509000   2225.7673     -602.85532      0             -575.52354      30566.273      1330.4925    
    510000   1966.3446     -607.77441      0             -583.62826     -29968.232      1407.2943    
    511000   1998.1602     -604.47326      0             -579.93643      2822.1944      1352.1591    
    512000   1769.7046     -608.61513      0             -586.88366     -6924.5386      1382.8766    
    513000   1983.1257     -606.36674      0             -582.01453     -9706.2825      1358.3118    
    514000   1906.1166     -607.61711      0             -584.21055     -13009.709      1359.7096    
    515000   2198.019      -604.54128      0             -577.55023     -20934.347      1394.4436    
    516000   1565.0591     -602.47329      0             -583.25481      14818.09       1320.7828    
    517000   2334.3925     -606.20479      0             -577.53912      11903.787      1364.2321    
    518000   2032.2331     -606.0608       0             -581.10556      28867.444      1375.639     
    519000   1709.5067     -604.07355      0             -583.08129     -4523.5529      1333.4707    
    520000   1902.8007     -605.5655       0             -582.19965     -44305.165      1383.86      
    521000   2250.3119     -606.4371       0             -578.80391     -28676.904      1382.1173    
    522000   2064.4962     -609.09725      0             -583.74583     -27617.709      1386.2988    
    523000   2016.8783     -605.34364      0             -580.57695     -32397.842      1382.3137    
    524000   1707.2516     -606.87619      0             -585.91163     -17198.632      1372.4614    
    525000   2174.039      -606.71138      0             -580.0148       21077.877      1311.0202    
    526000   1788.2785     -608.28945      0             -586.3299       4796.0517      1355.2748    
    527000   1784.8118     -607.13669      0             -585.21971      28319.631      1351.2212    
    528000   2136.9613     -605.04379      0             -578.80252     -11217.579      1355.1987    
    529000   1723.5552     -605.79983      0             -584.63507     -5080.8192      1361.1664    
    530000   1970.1558     -608.16534      0             -583.97239      20761.729      1328.0503    
    531000   1939.2041     -602.75237      0             -578.9395      -11296.634      1393.6923    
    532000   1925.8693     -604.64295      0             -580.99382     -27107.794      1394.8752    
    533000   2039.4164     -603.52098      0             -578.47753      3485.2389      1342.0233    
    534000   1830.3693     -606.94999      0             -584.47358     -18862.044      1373.7538    
    535000   1891.3765     -606.1248       0             -582.89923      22223.666      1333.7121    
    536000   1867.3754     -606.20913      0             -583.2783      -6236.1624      1388.4572    
    537000   1996.256      -601.69283      0             -577.17938     -20739.382      1406.7135    
    538000   1975.9483     -602.94042      0             -578.67634      25675.26       1314.8674    
    539000   1900.6194     -608.34997      0             -585.01091     -28333.457      1387.4056    
    540000   2027.4196     -604.05231      0             -579.15618     -7452.8824      1407.893     
    541000   1988.1438     -608.7472       0             -584.33336     -35414.017      1382.1671    
    542000   2079.1735     -605.89891      0             -580.36726      22628.98       1381.5319    
    543000   1687.4443     -605.75565      0             -585.03431      4380.9807      1386.8335    
    544000   1833.4326     -603.66674      0             -581.15271      8558.1289      1367.6512    
    545000   2022.7026     -604.86954      0             -580.03133      16158.765      1357.9242    
    546000   1996.4594     -605.39248      0             -580.87653     -10809.326      1373.8677    
    547000   2019.5783     -605.08495      0             -580.2851      -13114.659      1383.6254    
    548000   1908.6865     -609.88794      0             -586.44981      17937.012      1335.5817    
    549000   2182.7869     -609.46991      0             -582.66591      1939.5821      1338.3819    
    550000   2031.5859     -610.82172      0             -585.87443     -13894.845      1407.7559    
    551000   1860.842      -604.83098      0             -581.98037      3266.0523      1368.3007    
    552000   2080.9234     -612.07994      0             -586.52679      5091.8999      1354.1209    
    553000   2202.9243     -609.52593      0             -582.47465     -4472.9665      1365.1446    
    554000   2251.7483     -604.67999      0             -577.02916     -426.09335      1342.762     
    555000   2264.6971     -607.32889      0             -579.51905     -2942.91        1389.3674    
    556000   1967.2494     -605.32893      0             -581.17168      25045.408      1337.8613    
    557000   1887.9942     -607.25505      0             -584.07102     -6863.5019      1375.2645    
    558000   1912.2369     -604.07628      0             -580.59455     -384.79428      1358.5204    
    559000   1794.5355     -606.67477      0             -584.63839     -4128.2572      1366.1405    
    560000   2134.4313     -604.92504      0             -578.71483      12243.474      1359.0526    
Loop time of 6.69379 on 1 procs for 80000 steps with 96 atoms

Performance: 1032.598 ns/day, 0.023 hours/ns, 11951.369 timesteps/s, 1.147 Matom-step/s
98.9% CPU use with 1 MPI tasks x no OpenMP threads

MPI task timing breakdown:
Section |  min time  |  avg time  |  max time  |%varavg| %total
---------------------------------------------------------------
Pair    | 5.7382     | 5.7382     | 5.7382     |   0.0 | 85.72
Bond    | 0.0028085  | 0.0028085  | 0.0028085  |   0.0 |  0.04
Neigh   | 0.25016    | 0.25016    | 0.25016    |   0.0 |  3.74
Comm    | 0.20505    | 0.20505    | 0.20505    |   0.0 |  3.06
Output  | 0.010619   | 0.010619   | 0.010619   |   0.0 |  0.16
Modify  | 0.45282    | 0.45282    | 0.45282    |   0.0 |  6.76
Other   |            | 0.03416    |            |       |  0.51

Nlocal:             96 ave          96 max          96 min
Histogram: 1 0 0 0 0 0 0 0 0 0
Nghost:            542 ave         542 max         542 min
Histogram: 1 0 0 0 0 0 0 0 0 0
Neighs:              0 ave           0 max           0 min
Histogram: 1 0 0 0 0 0 0 0 0 0
FullNghs:         3080 ave        3080 max        3080 min
Histogram: 1 0 0 0 0 0 0 0 0 0

Total # of neighbors = 3080
Ave neighs/atom = 32.083333
Ave special neighs/atom = 0
Neighbor list builds = 1881
Dangerous builds = 0

fix npt1 all npt temp 2000 1000 0.1 iso 0 0 1
run 80000
Per MPI rank memory allocation (min/avg/max) = 8.549 | 8.549 | 8.549 Mbytes
   Step          Temp          E_pair         E_mol          TotEng         Press          Volume    
    560000   2134.4313     -604.92504      0             -578.71483      12243.474      1359.0526    
    561000   1643.9719     -607.16699      0             -586.97948      29617.471      1366.148     
    562000   1913.0391     -605.19646      0             -581.70489      9903.3377      1370.1081    
    563000   2051.2213     -606.45589      0             -581.26748     -319.189        1369.117     
    564000   1771.7574     -605.77175      0             -584.01507      21919.518      1370.8953    
    565000   2048.7205     -609.48505      0             -584.32735      35268.983      1308.5587    
    566000   1838.0554     -607.74399      0             -585.17319     -5658.0799      1373.9991    
    567000   1753.5085     -605.579        0             -584.04642      26277.286      1361.0709    
    568000   1689.9183     -606.2316       0             -585.47989     -9877.488       1357.3746    
    569000   1849.9908     -609.35176      0             -586.6344      -2743.8874      1354.5686    
    570000   1754.7727     -607.2021       0             -585.65399     -18335.01       1370.9666    
    571000   1906.9338     -609.49805      0             -586.08145      40068.302      1351.2624    
    572000   1625.7648     -605.84091      0             -585.87698     -8182.1138      1380.2647    
    573000   1802.3819     -609.62474      0             -587.49201     -6365.7565      1360.2426    
    574000   1818.6776     -610.30957      0             -587.97673      48450.099      1293.9117    
    575000   1863.3325     -608.26442      0             -585.38323      814.18595      1369.7782    
    576000   1910.7184     -610.08235      0             -586.61928      16363.109      1342.9131    
    577000   1917.8797     -607.13982      0             -583.58881      14415.969      1334.3969    
    578000   1748.9027     -608.36044      0             -586.88442      4939.8601      1358.1983    
    579000   1552.8996     -612.21761      0             -593.14845      10691.787      1360.1977    
    580000   1640.7504     -611.20417      0             -591.05623      14697.289      1312.602     
    581000   1865.3431     -611.81831      0             -588.91243     -4100.6761      1354.6705    
    582000   1947.7003     -611.1386       0             -587.22139      87.129528      1379.7691    
    583000   1619.6991     -611.37283      0             -591.48338      10330.932      1342.8381    
    584000   1538.6232     -606.14788      0             -587.25402     -236.70256      1345.949     
    585000   1461.6039     -609.80645      0             -591.85837     -19832.61       1388.6038    
    586000   1726.5737     -612.62344      0             -591.42161      18070.17       1349.1264    
    587000   1901.9235     -608.51195      0             -585.15687      27493.817      1323.4223    
    588000   1886.6638     -613.86454      0             -590.69685     -4329.5853      1373.0486    
    589000   1714.1457     -613.75381      0             -592.70459      383.36278      1359.5448    
    590000   1579.2065     -615.58857      0             -596.19636      14625.551      1321.8625    
    591000   1502.9196     -608.38792      0             -589.93249     -17813.364      1407.6845    
    592000   1691.4882     -611.91277      0             -591.14178     -4449.8371      1341.352     
    593000   1593.6061     -617.59378      0             -598.02476      24979.912      1320.7622    
    594000   1601.0573     -612.90758      0             -593.24705     -13128.089      1386.9223    
    595000   1702.4933     -611.73161      0             -590.82548      14195.793      1333.5945    
    596000   1579.5114     -614.94685      0             -595.5509      -3313.4123      1365.9916    
    597000   1305.0807     -610.66996      0             -594.64394      8045.8426      1365.467     
    598000   1496.2855     -614.59225      0             -596.21829      7450.7567      1339.922     
    599000   1661.7041     -613.95996      0             -593.55471      2984.8072      1367.1017    
    600000   1411.7739     -616.60892      0             -599.27274      8150.4573      1340.3027    
    601000   1452.0533     -612.90724      0             -595.07644      15418.068      1338.1783    
    602000   1463.2042     -612.5574       0             -594.58967     -6112.4884      1387.0796    
    603000   1517.8271     -613.89149      0             -595.25301     -3186.1315      1353.3262    
    604000   1402.3022     -615.88669      0             -598.66682     -6291.69        1351.0285    
    605000   1490.4743     -611.79543      0             -593.49283      560.9585       1351.7289    
    606000   1297.6707     -612.6232       0             -596.68818     -12033.261      1367.0865    
    607000   1513.3849     -614.54857      0             -595.96464     -12730.069      1371.1667    
    608000   1284.3403     -616.06027      0             -600.28894      6291.9916      1334.3183    
    609000   1238.6347     -616.68586      0             -601.47578      19860.819      1337.895     
    610000   1425.7983     -613.33707      0             -595.82867     -25035.669      1380.891     
    611000   1398.5461     -617.16321      0             -599.98946      18846.891      1328.6869    
    612000   1329.522      -611.69849      0             -595.37234     -2269.0281      1338.2767    
    613000   1374.8409     -614.77958      0             -597.89693     -5255.938       1363.3406    
    614000   1219.8065     -618.35651      0             -603.37764      1544.1731      1354.2395    
    615000   1363.4157     -616.10787      0             -599.36552      15980.058      1324.3138    
    616000   1323.3942     -614.92265      0             -598.67174     -3462.5816      1391.9326    
    617000   1212.3687     -616.89988      0             -602.01234      1172.6445      1337.8407    
    618000   1208.9575     -615.43113      0             -600.58548      33990.967      1316.1492    
    619000   1133.8668     -614.82197      0             -600.89841     -27928.538      1388.6899    
    620000   1217.6813     -620.06024      0             -605.10746     -19969.695      1342.6397    
    621000   1490.8749     -619.98315      0             -601.67564      6302.9811      1314.7358    
    622000   1101.155      -616.67789      0             -603.15602     -11403.382      1362.7733    
    623000   1328.2164     -616.16503      0             -599.85491     -3591.5497      1369.3942    
    624000   1109.3879     -617.48473      0             -603.86176     -3740.8693      1322.2336    
    625000   1432.9663     -616.54724      0             -598.95083      12767.588      1339.7287    
    626000   1265.5909     -617.53189      0             -601.9908      -5890.0269      1368.8139    
    627000   1269.8113     -620.20343      0             -604.61051      23077.763      1336.8506    
    628000   1141.4962     -616.05933      0             -602.04209      22343.575      1307.7321    
    629000   1054.7774     -618.83936      0             -605.88699     -17139.354      1364.978     
    630000   1247.1458     -616.37284      0             -601.05824      4379.2604      1319.7018    
[...]
Neighs:              0 ave           0 max           0 min
Histogram: 1 0 0 0 0 0 0 0 0 0
FullNghs:         3196 ave        3196 max        3196 min
Histogram: 1 0 0 0 0 0 0 0 0 0

Total # of neighbors = 3196
Ave neighs/atom = 33.291667
Ave special neighs/atom = 0
Neighbor list builds = 173
Dangerous builds = 0


fix npt1 all npt temp 500 10 0.1 iso 0 0 1
run 80000
Per MPI rank memory allocation (min/avg/max) = 8.549 | 8.549 | 8.549 Mbytes
   Step          Temp          E_pair         E_mol          TotEng         Press          Volume    
    880000   448.44        -626.69048      0             -621.18376     -4038.4728      1333.8589    
    881000   491.84867     -627.31187      0             -621.27211      1156.3252      1340.7168    
    882000   538.81218     -627.5894       0             -620.97295      3074.3489      1340.9774    
    883000   474.83339     -627.64247      0             -621.81166     -11545.807      1328.7778    
    884000   530.16604     -626.76193      0             -620.25165     -8956.213       1331.3629    
    885000   454.5249      -627.69345      0             -622.11202      9754.1499      1311.2012    
    886000   452.42045     -626.98621      0             -621.43062      11354.025      1327.1866    
    887000   485.75763     -626.44492      0             -620.47996     -5821.2759      1331.6596    
    888000   416.76277     -627.48809      0             -622.37036     -2577.2895      1326.3793    
    889000   516.58855     -627.88937      0             -621.54582      6459.0109      1314.1585    
    890000   437.49931     -627.85676      0             -622.4844      -7877.2115      1351.7159    
    891000   504.39667     -626.75545      0             -620.5616      -9166.1475      1355.1908    
    892000   412.29937     -628.11707      0             -623.05415      8805.1828      1307.3553    
    893000   453.26475     -627.66066      0             -622.0947      -4100.3655      1328.501     
    894000   367.20213     -627.80521      0             -623.29607     -9210.062       1335.597     
    895000   473.10121     -628.10595      0             -622.29641     -2173.2537      1338.6187    
    896000   367.48172     -628.49704      0             -623.98447     -1095.5255      1329.6893    
    897000   383.58624     -627.88428      0             -623.17395      759.49079      1318.7819    
    898000   337.73759     -627.88385      0             -623.73653      881.2824       1325.2662    
    899000   352.30008     -628.78536      0             -624.45921     -2272.1983      1318.6896    
    900000   411.69254     -628.68579      0             -623.63033      9208.6055      1304.554     
    901000   368.73355     -628.98354      0             -624.4556       1329.1946      1317.4298    
    902000   398.48146     -628.82537      0             -623.93213      21475.463      1286.719     
    903000   385.72097     -629.09348      0             -624.35693     -2895.8311      1333.7675    
    904000   330.46692     -627.94233      0             -623.88429     -13273.245      1334.7166    
    905000   311.40958     -629.42757      0             -625.60355      13197.752      1314.0696    
    906000   331.91207     -628.51222      0             -624.43643      8550.7879      1299.107     
    907000   308.91652     -629.47507      0             -625.68166      1005.5416      1322.5918    
    908000   345.31098     -628.72638      0             -624.48606     -7289.6541      1329.2505    
    909000   279.06876     -628.81491      0             -625.38803     -10568.342      1313.8697    
    910000   331.76334     -628.83213      0             -624.75817      4589.7562      1324.5282    
    911000   301.50822     -629.15237      0             -625.44993      4885.2268      1313.9954    
    912000   293.47211     -629.5989       0             -625.99515     -11324.806      1332.6893    
    913000   284.771       -629.20388      0             -625.70697      2888.7376      1334.2594    
    914000   279.44628     -629.46987      0             -626.03835      11146.802      1312.1424    
    915000   294.66886     -629.3307       0             -625.71225     -9375.0623      1338.9509    
    916000   279.78046     -629.89894      0             -626.46332      5734.45        1313.9512    
    917000   261.88421     -629.94985      0             -626.73398      4353.4881      1311.8447    
    918000   258.16549     -629.84337      0             -626.67317     -8521.9638      1320.8878    
    919000   260.68794     -629.86201      0             -626.66084      394.3449       1322.3747    
    920000   219.10682     -630.3474       0             -627.65683      13822.194      1315.9717    
    921000   252.60188     -630.16105      0             -627.05917     -1357.558       1314.4394    
    922000   238.42111     -629.80095      0             -626.87321     -3437.2508      1318.2059    
    923000   237.50624     -630.19087      0             -627.27436      11832.874      1310.8758    
    924000   224.90872     -630.70438      0             -627.94256     -5433.3872      1331.9293    
    925000   211.78586     -630.23966      0             -627.639        6137.3614      1322.4108    
    926000   230.75205     -630.70367      0             -627.8701      -1037.9125      1322.6041    
    927000   200.41359     -630.62521      0             -628.16419     -4480.26        1318.0664    
    928000   241.08201     -631.00301      0             -628.04259     -6548.2156      1321.0558    
    929000   180.23087     -630.71926      0             -628.50608      3310.995       1314.4828    
    930000   227.98025     -630.93551      0             -628.13598      954.94263      1309.9691    
    931000   206.19085     -630.93811      0             -628.40615     -3850.5261      1313.4529    
    932000   191.41742     -631.28267      0             -628.93212      13240.074      1307.8853    
    933000   155.79907     -630.85939      0             -628.94623      9403.1754      1306.1564    
    934000   172.16098     -631.22053      0             -629.10644      7140.9016      1306.5145    
    935000   170.13136     -631.28878      0             -629.19961      3332.826       1314.0826    
    936000   167.0736      -631.12568      0             -629.07406      6360.98        1302.2981    
    937000   153.48496     -631.51486      0             -629.63011      2142.9235      1311.1914    
    938000   151.97047     -631.74829      0             -629.88214     -11071.513      1318.9124    
    939000   171.06391     -631.46188      0             -629.36126      5370.8536      1308.5411    
    940000   131.65877     -631.67038      0             -630.05365     -3284.2275      1320.8431    
    941000   142.23687     -631.54916      0             -629.80253     -265.88161      1308.5574    
    942000   100.08502     -631.64296      0             -630.41395      10.531036      1318.6963    
    943000   103.77537     -631.84495      0             -630.57062      6214.9306      1301.2901    
    944000   116.74103     -631.89765      0             -630.4641      -1464.8346      1319.7523    
    945000   106.63041     -632.02333      0             -630.71394      4315.3216      1314.4312    
    946000   99.962544     -632.1395       0             -630.91199      1607.0115      1308.4796    
    947000   97.74332      -632.1897       0             -630.98944     -4656.8068      1309.7127    
    948000   87.746408     -632.29805      0             -631.22055     -2007.601       1305.6782    
    949000   74.084411     -632.18124      0             -631.27151     -4937.7023      1318.8743    
    950000   76.258149     -632.54101      0             -631.60458     -1443.4642      1315.1444    
    951000   64.863451     -632.4488       0             -631.65229      498.98916      1312.8374    
    952000   60.512483     -632.60471      0             -631.86163      2532.1842      1308.3507    
    953000   56.837819     -632.50846      0             -631.81051     -1707.4388      1314.2407    
    954000   43.226654     -632.69757      0             -632.16676     -3832.8244      1312.2572    
    955000   48.286123     -632.79972      0             -632.20678     -373.69009      1312.151     
    956000   36.270558     -632.87904      0             -632.43365      38.170665      1308.143     
    957000   25.915007     -632.9538       0             -632.63557     -105.98745      1310.5266    
    958000   22.112724     -633.06179      0             -632.79025      300.61355      1307.6592    
    959000   17.244054     -633.11105      0             -632.8993      -367.09936      1310.501     
    960000   8.7386637     -633.15848      0             -633.05117     -386.64174      1309.5991    
Loop time of 5.86985 on 1 procs for 80000 steps with 96 atoms

Performance: 1177.543 ns/day, 0.020 hours/ns, 13628.964 timesteps/s, 1.308 Matom-step/s
98.7% CPU use with 1 MPI tasks x no OpenMP threads

MPI task timing breakdown:
Section |  min time  |  avg time  |  max time  |%varavg| %total
---------------------------------------------------------------
Pair    | 5.1898     | 5.1898     | 5.1898     |   0.0 | 88.41
Bond    | 0.0026802  | 0.0026802  | 0.0026802  |   0.0 |  0.05
Neigh   | 0.0048207  | 0.0048207  | 0.0048207  |   0.0 |  0.08
Comm    | 0.19237    | 0.19237    | 0.19237    |   0.0 |  3.28
Output  | 0.0090826  | 0.0090826  | 0.0090826  |   0.0 |  0.15
Modify  | 0.44429    | 0.44429    | 0.44429    |   0.0 |  7.57
Other   |            | 0.02684    |            |       |  0.46

Nlocal:             96 ave          96 max          96 min
Histogram: 1 0 0 0 0 0 0 0 0 0
Nghost:            538 ave         538 max         538 min
Histogram: 1 0 0 0 0 0 0 0 0 0
Neighs:              0 ave           0 max           0 min
Histogram: 1 0 0 0 0 0 0 0 0 0
FullNghs:         3206 ave        3206 max        3206 min
Histogram: 1 0 0 0 0 0 0 0 0 0

Total # of neighbors = 3206
Ave neighs/atom = 33.395833
Ave special neighs/atom = 0
Neighbor list builds = 36
Dangerous builds = 0

fix npt1 all npt temp 10 10 0.1 iso 0 0 1
run 80000
Per MPI rank memory allocation (min/avg/max) = 8.549 | 8.549 | 8.549 Mbytes
   Step          Temp          E_pair         E_mol          TotEng         Press          Volume    
    960000   8.7386637     -633.15848      0             -633.05117     -386.64174      1309.5991    
    961000   8.1332621     -633.16518      0             -633.0653       3582.9759      1309.8016    
    962000   10.933336     -633.16887      0             -633.03461      890.29242      1306.9929    
    963000   9.5183961     -633.18583      0             -633.06895      1991.8774      1309.4593    
    964000   9.9129234     -633.16631      0             -633.04459     -1066.8496      1307.1013    
    965000   9.323588      -633.16237      0             -633.04788     -187.2676       1312.9536    
    966000   11.335621     -633.1729       0             -633.0337       1590.3752      1307.7946    
    967000   9.4744857     -633.16923      0             -633.05288      1109.6864      1309.347     
    968000   9.4006536     -633.18828      0             -633.07284     -1323.3543      1311.3121    
    969000   10.311748     -633.17492      0             -633.04829     -2029.7235      1311.7919    
    970000   8.3895578     -633.18289      0             -633.07987      898.80496      1310.5478    
    971000   11.689154     -633.18422      0             -633.04068     -2190.6777      1311.0096    
    972000   9.4883327     -633.18045      0             -633.06394      687.0784       1311.923     
    973000   9.0198959     -633.1447       0             -633.03394      4569.7298      1307.9489    
    974000   9.8947971     -633.15989      0             -633.03838      620.96934      1309.8758    
    975000   10.309396     -633.18427      0             -633.05768      493.88181      1312.3777    
    976000   9.0318168     -633.1648       0             -633.05389     -2747.937       1313.6207    
    977000   8.3230367     -633.18084      0             -633.07863     -410.53212      1311.2028    
    978000   10.377186     -633.17432      0             -633.0469       4920.3109      1309.1419    
    979000   8.5546911     -633.18218      0             -633.07714      2026.7746      1311.805     
    980000   10.674273     -633.17643      0             -633.04535     -239.9452       1310.2757    
    981000   10.04761      -633.17299      0             -633.04961     -1451.6615      1311.2201    
    982000   10.262547     -633.1861       0             -633.06008     -3501.6884      1311.7477    
    983000   10.389435     -633.16072      0             -633.03314     -3268.3897      1312.1603    
    984000   9.7641718     -633.17963      0             -633.05973     -142.40625      1308.9419    
    985000   10.304621     -633.15645      0             -633.02991      960.79263      1307.4133    
    986000   10.595869     -633.1925       0             -633.06238     -1746.0305      1309.6899    
    987000   9.932519      -633.18353      0             -633.06156     -2632.5448      1312.2665    
    988000   10.206176     -633.17374      0             -633.04841     -1211.1753      1310.8442    
    989000   9.8969667     -633.1854       0             -633.06386     -113.54627      1310.9991    
    990000   11.583728     -633.1804       0             -633.03816     -365.18955      1309.5262    
    991000   10.431545     -633.16651      0             -633.03842     -1286.0198      1311.8989    
    992000   9.8940226     -633.17504      0             -633.05354     -491.74946      1311.3369    
    993000   9.9378777     -633.16684      0             -633.0448       7.0174562      1310.9549    
    994000   9.8273446     -633.16019      0             -633.03951     -1367.4855      1311.3206    
    995000   9.2728167     -633.18386      0             -633.06999     -105.32496      1310.3157    
    996000   11.726681     -633.1707       0             -633.0267       192.2203       1308.9671    
    997000   10.754047     -633.19622      0             -633.06417      2990.8764      1307.4951    
    998000   10.11958      -633.1571       0             -633.03283     -1026.177       1311.4308    
    999000   9.9026385     -633.1712       0             -633.0496      -342.67001      1310.7419    
   1000000   8.1841926     -633.16338      0             -633.06288     -1226.8207      1311.5398    
   1001000   9.4211414     -633.17078      0             -633.05509     -1466.669       1311.4203    
   1002000   9.0588797     -633.15724      0             -633.046       -5432.4211      1314.4816    
   1003000   8.1090403     -633.18212      0             -633.08255     -1281.3475      1311.3803    
   1004000   10.320521     -633.16493      0             -633.0382       770.56316      1310.152     
   1005000   9.3779094     -633.17602      0             -633.06086      1802.1742      1309.2118    
   1006000   9.2659814     -633.15052      0             -633.03674     -838.18581      1309.4218    
   1007000   9.430611      -633.17141      0             -633.05561     -1528.5942      1311.1356    
   1008000   9.8608632     -633.16129      0             -633.0402       705.05675      1312.4686    
   1009000   10.046258     -633.18055      0             -633.05719      1186.3033      1309.6039    
   1010000   9.1231251     -633.18444      0             -633.07241     -1117.9888      1312.8707    
   1011000   10.562807     -633.16771      0             -633.03801      728.71156      1308.3238    
   1012000   9.9491896     -633.17156      0             -633.04939      15.293611      1308.858     
   1013000   9.2697719     -633.1696       0             -633.05577      505.30512      1309.5688    
   1014000   11.097012     -633.16093      0             -633.02466      481.09742      1312.9734    
   1015000   10.875272     -633.17977      0             -633.04622     -980.14327      1311.0988    
   1016000   8.6843029     -633.18643      0             -633.07979     -252.71516      1309.6416    
   1017000   11.687045     -633.18499      0             -633.04148      3182.1303      1309.6012    
   1018000   9.0686209     -633.18243      0             -633.07107     -1942.0495      1310.7973    
   1019000   11.578116     -633.16928      0             -633.0271      -488.42028      1312.1682    
   1020000   10.563878     -633.17527      0             -633.04555     -709.29952      1310.1863    
   1021000   10.331198     -633.17299      0             -633.04613     -2946.552       1311.7841    
   1022000   8.0325335     -633.17657      0             -633.07793     -323.28775      1310.8591    
   1023000   10.420659     -633.1702       0             -633.04223      1255.6726      1307.5291    
   1024000   10.98676      -633.17306      0             -633.03815      1736.0723      1308.209     
   1025000   10.098203     -633.18449      0             -633.06049      1364.1598      1309.4675    
   1026000   11.09216      -633.16067      0             -633.02447      2122.774       1305.9299    
   1027000   9.9502162     -633.179        0             -633.05682      808.27921      1308.5308    
   1028000   10.634056     -633.16596      0             -633.03537     -1396.2114      1308.3763    
   1029000   8.7189384     -633.18017      0             -633.0731       1899.2074      1307.9141    
   1030000   9.5499949     -633.162        0             -633.04473     -1635.6185      1313.4908    
   1031000   11.063561     -633.1633       0             -633.02744      1742.4909      1308.7725    
   1032000   9.898834      -633.18224      0             -633.06069     -1147.033       1309.5852    
   1033000   11.526149     -633.16004      0             -633.01851      901.42049      1309.0617    
   1034000   9.3713204     -633.17717      0             -633.06209      979.09411      1310.0912    
   1035000   9.8494442     -633.18297      0             -633.06202      926.05711      1311.2555    
   1036000   10.341567     -633.16928      0             -633.04229      347.46217      1309.2678    
   1037000   10.62914      -633.19648      0             -633.06596     -475.23706      1310.6821    
   1038000   9.7626899     -633.16434      0             -633.04446     -943.78834      1312.8776    
   1039000   10.134923     -633.18198      0             -633.05752     -2221.2707      1310.9986    
   1040000   11.935758     -633.16087      0             -633.0143       3322.398       1309.25      
Loop time of 6.37117 on 1 procs for 80000 steps with 96 atoms

Performance: 1084.886 ns/day, 0.022 hours/ns, 12556.556 timesteps/s, 1.205 Matom-step/s
95.4% CPU use with 1 MPI tasks x no OpenMP threads

MPI task timing breakdown:
Section |  min time  |  avg time  |  max time  |%varavg| %total
---------------------------------------------------------------
Pair    | 5.6568     | 5.6568     | 5.6568     |   0.0 | 88.79
Bond    | 0.0029777  | 0.0029777  | 0.0029777  |   0.0 |  0.05
Neigh   | 0          | 0          | 0          |   0.0 |  0.00
Comm    | 0.19366    | 0.19366    | 0.19366    |   0.0 |  3.04
Output  | 0.010508   | 0.010508   | 0.010508   |   0.0 |  0.16
Modify  | 0.47655    | 0.47655    | 0.47655    |   0.0 |  7.48
Other   |            | 0.03071    |            |       |  0.48

Nlocal:             96 ave          96 max          96 min
Histogram: 1 0 0 0 0 0 0 0 0 0
Nghost:            538 ave         538 max         538 min
Histogram: 1 0 0 0 0 0 0 0 0 0
Neighs:              0 ave           0 max           0 min
Histogram: 1 0 0 0 0 0 0 0 0 0
FullNghs:         3174 ave        3174 max        3174 min
Histogram: 1 0 0 0 0 0 0 0 0 0

Total # of neighbors = 3174
Ave neighs/atom = 33.0625
Ave special neighs/atom = 0
Neighbor list builds = 0
Dangerous builds = 0


write_data amorphousSiO.data
System init for write_data ...


Total wall time: 0:01:24
