96
 Atoms. Timestep: 0
2 0 7.95642 4.74695
2 4.63304 0 11.358
2 0 4.63304 4.74695
2 7.95642 0 11.358
2 0 4.63304 8.47514
2 7.95642 0 1.8641
2 0 7.95642 8.47514
2 4.63304 0 1.8641
2 10.7421 8.43088 6.61105
2 4.15858 10.7421 0
2 1.84736 4.15858 6.61105
2 8.43088 1.84736 0
2 1.84736 8.43088 6.61105
2 8.43088 10.7421 0
2 10.7421 4.15858 6.61105
2 4.15858 1.84736 0
2 10.5201 6.29473 5.04003
2 6.29473 10.5201 11.6511
2 2.06934 6.29473 5.04003
2 6.29473 2.06934 11.6511
2 2.06934 6.29473 8.18207
2 6.29473 2.06934 1.57102
2 10.5201 6.29473 8.18207
2 6.29473 10.5201 1.57102
2 10.1594 8.65935 9.20274
2 3.93011 10.1594 2.59169
2 2.43004 3.93011 9.20274
2 8.65935 2.43004 2.59169
2 2.43004 8.65935 9.20274
2 8.65935 10.1594 2.59169
2 10.1594 3.93011 9.20274
2 3.93011 2.43004 2.59169
2 2.43004 3.93011 4.01936
2 8.65935 2.43004 10.6304
2 10.1594 8.65935 4.01936
2 3.93011 10.1594 10.6304
2 10.1594 3.93011 4.01936
2 3.93011 2.43004 10.6304
2 2.43004 8.65935 4.01936
2 8.65935 10.1594 10.6304
2 0 10.703 0
2 1.88643 0 6.61105
2 0 1.88643 0
2 10.703 0 6.61105
2 0 0 1.872
2 0 0 8.48305
2 0 0 11.3501
2 0 0 4.73905
2 11.2706 2.31295 2.18973
2 10.2765 11.2706 8.80078
2 1.31887 10.2765 2.18973
2 2.31295 1.31887 8.80078
2 1.31887 2.31295 2.18973
2 2.31295 11.2706 8.80078
2 11.2706 10.2765 2.18973
2 10.2765 1.31887 8.80078
2 1.31887 10.2765 11.0324
2 2.31295 1.31887 4.42131
2 11.2706 2.31295 11.0324
2 10.2765 11.2706 4.42131
2 11.2706 10.2765 11.0324
2 10.2765 1.31887 4.42131
2 1.31887 2.31295 11.0324
2 2.31295 11.2706 4.42131
1 11.0086 7.83654 8.10972
1 4.75292 11.0086 1.49867
1 1.5809 4.75292 8.10972
1 7.83654 1.5809 1.49867
1 1.5809 7.83654 8.10972
1 7.83654 11.0086 1.49867
1 11.0086 4.75292 8.10972
1 4.75292 1.5809 1.49867
1 1.5809 4.75292 5.11238
1 7.83654 1.5809 11.7234
1 11.0086 7.83654 5.11238
1 4.75292 11.0086 11.7234
1 11.0086 4.75292 5.11238
1 4.75292 1.5809 11.7234
1 1.5809 7.83654 5.11238
1 7.83654 11.0086 11.7234
1 10.1088 10.1088 3.30552
1 2.48067 10.1088 9.91657
1 2.48067 2.48067 3.30552
1 10.1088 2.48067 9.91657
1 2.48067 10.1088 3.30552
1 10.1088 10.1088 9.91657
1 10.1088 2.48067 3.30552
1 2.48067 2.48067 9.91657
1 0 1.60471 1.57853
1 10.9848 0 8.18958
1 0 10.9848 1.57853
1 1.60471 0 8.18958
1 0 10.9848 11.6436
1 1.60471 0 5.03252
1 0 1.60471 11.6436
1 10.9848 0 5.03252
96
 Atoms. Timestep: 2000
2 0.0333315 8.56073 5.43347
2 4.34009 -0.245239 12.3222
2 12.5156 5.0453 4.63424
2 8.20282 12.5265 10.9904
2 -0.0253112 4.19292 8.56963
2 7.83215 12.6734 0.594843
2 12.8986 8.17236 8.73276
2 4.16122 1.36727 4.39366
2 11 8.34887 6.81739
2 5.17458 11.05 -0.0698814
2 1.86205 4.73616 6.6831
2 7.45857 1.46413 13.0464
2 1.50527 7.57296 6.85018
2 8.37097 10.9552 12.7669
2 11.4966 4.15367 6.93009
2 5.28915 12.7118 2.9699
2 11.0339 6.40597 5.63153
2 5.89412 11.1228 11.1862
2 1.81249 6.85071 4.80546
2 5.99415 1.18386 11.1092
2 1.91519 6.16575 8.30884
2 6.69612 1.38879 2.57382
2 11.7046 5.92287 8.73436
2 6.2668 10.2983 1.50385
2 10.9927 8.95658 8.92916
2 3.2826 10.6888 2.20607
2 1.78722 3.06487 8.7301
2 8.69525 2.10619 2.39119
2 2.08254 8.92982 8.99966
2 9.12492 10.611 2.18464
2 10.7346 3.4324 9.56526
2 3.505 1.86162 1.97995
2 1.56825 4.08658 3.21532
2 9.06016 1.88045 10.5805
2 11.1073 9.02995 3.76142
2 3.90704 10.2654 11.1738
2 10.3648 4.19094 4.15638
2 3.41315 2.22837 10.9263
2 2.06124 9.52852 4.3594
2 8.24405 10.0644 10.2513
2 11.8244 10.7977 -0.241875
2 1.68095 12.8677 6.86379
2 -0.221572 1.76884 13.2125
2 10.9303 12.6534 6.2601
2 12.7207 -0.173389 -0.09579
2 12.862 12.2334 7.79644
2 0.298779 12.1137 11.3984
2 12.7613 0.626877 4.45196
2 11.2983 3.11944 1.55362
2 10.9382 11.1287 9.32978
2 0.871256 11.5296 2.28501
2 2.2774 0.8139 9.22714
2 0.868379 3.56256 1.38332
2 2.12384 11.3132 9.35226
2 11.601 11.5593 2.23163
2 11.2753 0.377603 8.82604
2 0.829018 9.69023 11.3624
2 1.77975 1.25615 3.61657
2 11.7359 1.02357 11.14
2 10.8449 12.3106 4.09624
2 10.6763 10.0286 11.6778
2 10.6399 1.13221 3.27273
2 0.625662 1.84442 11.0103
2 2.25046 12.2133 4.11652
1 11.2688 7.53463 8.22277
1 4.89261 11.2009 2.04405
1 1.32531 4.63574 8.24596
1 7.60109 1.17615 1.09106
1 1.33924 7.66987 8.42773
1 7.82763 11.0385 0.569748
1 11.5019 4.4515 8.60678
1 5.03635 1.40282 2.90789
1 1.45345 5.19447 4.64142
1 7.6891 1.17386 11.2371
1 11.5901 7.95086 4.99811
1 4.62552 11.2587 12.1506
1 11.0807 4.83382 5.55219
1 4.55874 1.22606 11.5794
1 1.70622 8.30316 5.59432
1 7.55451 11.1025 11.0056
1 10.5113 10.8281 3.15547
1 2.22451 10.041 10.1158
1 1.82124 2.35035 2.4544
1 10.7369 1.76747 9.91427
1 2.212 10.8444 3.29739
1 10.1431 9.84961 9.95673
1 10.2722 2.83952 2.93316
1 1.98074 2.0543 10.1872
1 12.6442 2.77888 0.626388
1 11.1192 11.909 7.88872
1 -0.258941 11.8265 1.10225
1 1.44627 12.5859 8.67241
1 12.6239 10.5818 11.9629
1 1.1887 0.0371755 5.21927
1 -0.0502484 0.612296 12.1277
1 11.2773 0.254362 5.09398
96
 Atoms. Timestep: 4000
2 0.280066 7.88296 4.23515
2 5.18466 -0.431412 12.4906
2 0.167626 4.7197 4.82915
2 8.35213 0.598881 11.6024
2 -0.143472 4.16475 9.19337
2 8.54525 0.326435 1.30352
2 0.197607 7.86619 8.00626
2 6.54697 1.2335 4.73215
2 11.4286 8.16321 6.28376
2 4.2958 11.3146 0.106374
2 0.973138 4.5349 6.85917
2 7.53266 2.17722 13.4058
2 1.75418 8.72049 6.72287
2 7.94436 12.2657 12.772
2 11.4031 4.54506 6.89196
2 4.68744 0.10708 2.53956
2 11.8262 6.24255 4.25696
2 6.18075 10.5358 12.5232
2 2.97346 5.38768 4.59929
2 5.72515 1.506 11.678
2 2.4099 6.42423 8.50856
2 6.46074 1.77992 1.89153
2 11.396 6.21321 8.58505
2 6.39967 12.0537 1.21519
2 11.1727 8.80993 8.73858
2 3.43894 11.0292 2.13258
2 2.18025 3.37565 10.0005
2 9.48339 2.11593 2.22391
2 2.53134 9.07568 9.13262
2 8.76689 10.7426 1.43978
2 10.1356 3.82281 9.56274
2 3.746 1.86753 3.3722
2 1.64042 3.17848 4.27901
2 8.26786 2.2194 10.1905
2 10.8417 8.82973 3.5329
2 3.88624 10.5085 11.034
2 11.3449 3.36151 4.57401
2 3.25669 2.10821 11.7366
2 1.67301 9.64615 3.66115
2 9.31201 10.01 11.2214
2 12.694 10.6123 13.0508
2 0.538568 -0.463911 6.27783
2 0.376681 1.92922 -0.544596
2 10.1888 12.8385 6.4519
2 12.2009 -0.286186 13.4173
2 12.1511 -0.184353 8.45276
2 12.3885 12.7076 10.9088
2 12.0186 12.4568 4.25444
2 12.1986 2.12427 2.91181
2 10.4546 11.4802 9.08648
2 0.522709 10.5889 1.47963
2 1.3584 0.445023 9.21197
2 1.60968 2.1113 1.82771
2 0.916016 11.1192 9.30104
2 11.0736 10.9564 1.40556
2 9.98591 0.644679 8.95734
2 1.30115 10.3055 11.0665
2 1.34017 0.469788 4.44998
2 11.2593 1.57548 10.9882
2 9.66932 11.8134 3.2759
2 11.9456 10.636 10.4236
2 10.2201 0.618384 4.0542
2 0.820667 1.02122 11.2601
2 0.893187 11.9762 2.87673
1 11.9358 7.74054 7.79568
1 4.68537 11.7985 1.55474
1 1.53335 4.7225 8.74408
1 7.93932 1.9812 1.23164
1 1.99485 8.06053 8.10765
1 7.92539 12.0683 0.873494
1 11.4592 4.61263 8.69735
1 5.78955 1.40715 3.29536
1 1.67159 4.4898 5.40666
1 7.36252 1.98109 11.6875
1 11.8382 8.00309 4.6735
1 4.74793 11.0081 12.2184
1 11.8189 4.98352 5.29675
1 4.33894 1.18267 12.4821
1 1.69188 8.36597 4.74373
1 7.87255 10.9144 11.7529
1 10.2898 10.4038 2.68771
1 2.59689 10.4898 10.0093
1 1.99464 1.62628 3.53208
1 9.93264 2.05328 9.93035
1 1.89062 10.5302 2.41183
1 10.6089 10.0401 9.84871
1 10.5263 2.02838 3.52742
1 2.10242 1.67843 10.2965
1 -0.0302545 2.38172 1.37326
1 10.6701 12.6156 8.09288
1 12.4678 11.5233 0.496694
1 0.583764 12.5182 8.21146
1 -0.0159793 10.9302 11.3762
1 0.448709 12.3623 4.19641
1 12.6339 0.779601 12.1868
1 10.4317 12.4858 4.83043
96
 Atoms. Timestep: 6000
2 12.5809 8.1089 5.14497
2 5.51096 12.2943 10.7414
2 12.3984 4.77193 4.74004
2 7.37448 12.4115 12.4018
2 12.6122 4.76827 8.97758
2 8.00362 12.6104 1.89149
2 11.5676 8.71105 10.7151
2 6.1445 4.25417 4.33447
2 10.7555 8.14151 7.55705
2 4.83495 10.1491 12.8834
2 1.59879 3.8367 6.55776
2 7.52885 1.74571 0.267794
2 1.89551 7.62798 7.19461
2 8.83004 10.7685 13.2464
2 10.4922 4.16326 6.9023
2 5.27481 1.26592 3.91952
2 10.6674 6.53863 5.17649
2 6.83282 10.3937 11.1326
2 1.12825 6.12589 5.79751
2 6.17491 1.26119 11.8201
2 1.77647 5.81049 8.64431
2 6.91673 2.51112 2.82458
2 11.0618 6.49247 9.1238
2 6.38171 8.84869 1.29757
2 9.51715 9.591 8.6965
2 3.96012 10.2941 1.50621
2 1.66795 3.5019 9.43464
2 9.19223 1.67753 1.66542
2 1.95807 8.3123 10.0056
2 9.28479 9.99398 2.64476
2 9.99912 3.77969 9.09446
2 3.92721 3.29562 3.00579
2 1.63094 4.24134 3.48129
2 8.39464 2.25266 10.9116
2 10.1413 9.06224 4.71006
2 3.89576 10.202 10.3704
2 10.4511 4.20496 3.35875
2 3.74162 1.95993 10.4411
2 2.37895 8.96473 4.18997
2 8.6966 10.6791 10.1588
2 11.7477 10.1389 13.1902
2 2.10287 0.310611 5.94636
2 12.2103 1.02898 13.2762
2 11.5295 0.757246 6.42587
2 12.4492 12.1303 11.817
2 0.0870288 12.5406 7.77776
2 12.6143 0.247596 9.89248
2 0.287726 12.5716 4.91782
2 11.4745 2.61944 1.98829
2 10.1182 12.3192 8.04676
2 1.40571 10.4374 1.97753
2 2.11517 0.94352 8.64617
2 0.963688 2.84463 0.89225
2 1.78223 10.8025 8.30661
2 11.6347 8.94953 2.32229
2 10.2113 1.57957 8.78611
2 0.942292 11.0001 10.876
2 2.01897 1.41353 3.16098
2 11.3276 1.92319 11.4451
2 11.1119 11.1211 4.71351
2 10.6436 10.7351 10.6262
2 10.8287 1.23798 3.8945
2 1.21602 1.47924 11.4084
2 2.43644 11.3408 4.07954
1 10.8362 8.33259 9.06875
1 5.26112 10.0604 0.895596
1 1.27802 4.38812 8.12617
1 7.59135 1.4872 1.74649
1 1.30327 7.35559 8.75145
1 8.5134 11.0787 1.5203
1 10.9002 5.16268 8.41999
1 5.54821 2.88241 3.80875
1 1.00999 4.71121 5.04084
1 7.78025 1.3303 12.3087
1 11.0824 8.10741 5.9755
1 5.14333 10.7056 11.5487
1 10.7291 5.04304 4.98403
1 5.14654 1.258 10.6514
1 1.32398 7.6842 5.52862
1 8.45871 11.0485 11.6326
1 10.7151 9.93739 3.56387
1 2.1888 10.0604 9.98766
1 2.27597 2.96617 2.58263
1 9.98888 2.61713 10.1094
1 2.58174 10.0797 3.03862
1 9.76603 10.9995 8.99673
1 10.2324 2.461 2.86502
1 2.03518 1.94733 10.0173
1 12.0871 2.73885 0.5248
1 11.4846 0.359522 8.16222
1 12.6378 9.76478 1.23974
1 1.82901 12.6133 7.635
1 12.0073 10.5118 11.2138
1 1.9365 -0.0471469 4.42294
1 12.4871 0.845759 11.4197
1 11.5188 12.7201 5.03266
96
 Atoms. Timestep: 8000
2 11.5579 7.18997 4.893
2 5.67109 0.859115 11.2166
2 12.0197 4.8811 4.91261
2 10.2558 1.40568 11.051
2 0.102581 4.91595 8.14909
2 8.19346 0.428305 1.94053
2 10.0426 7.4698 10.2564
2 5.2783 3.25357 12.7122
2 9.51661 7.50186 6.96851
2 3.89589 11.9003 13.0373
2 1.76619 5.21872 6.72215
2 8.97203 2.06064 12.6675
2 0.54789 7.93641 7.10103
2 7.87021 -0.0165826 12.7676
2 11.127 3.49123 6.30778
2 6.13541 12.3109 2.95415
2 9.81678 5.2352 5.39014
2 6.04559 11.7665 12.4665
2 1.49371 6.56177 5.00191
2 7.58319 3.01371 11.6414
2 1.10794 6.61577 9.02034
2 6.75783 1.94452 1.13794
2 10.4405 4.23597 8.94727
2 1.44217 0.606076 0.856414
2 7.73667 9.11577 9.6216
2 2.78062 10.6102 2.07541
2 3.26029 4.80316 9.07555
2 9.94931 2.03346 1.21717
2 2.19826 9.38261 9.61244
2 8.61124 10.287 3.33103
2 11.6415 2.51674 8.74112
2 4.75728 2.22087 3.60356
2 2.17952 4.26144 4.28626
2 9.87815 3.27878 10.1442
2 9.46727 7.5449 3.67265
2 3.96022 11.794 10.2797
2 10.4213 2.82718 3.90043
2 5.04406 3.47796 10.3968
2 1.09487 9.50271 4.60561
2 8.3343 10.2354 12.1478
2 12.2246 8.25928 13.0579
2 2.0579 0.840077 6.82627
2 0.799512 2.87402 13.0641
2 11.7522 10.9861 6.76929
2 1.87423 1.50277 9.96523
2 -0.0278607 9.81217 8.7259
2 9.62084 9.59868 8.1855
2 0.0485039 0.32419 5.25583
2 12.4258 2.67446 2.18961
2 9.76623 10.8935 9.7274
2 0.389919 10.403 2.15633
2 3.16847 2.47774 8.25351
2 2.38263 3.15833 2.05391
2 2.13664 12.3744 8.74052
2 10.7648 9.0687 2.17815
2 11.4225 12.1836 9.2778
2 12.2733 8.10751 10.2592
2 2.39524 1.69095 4.19949
2 12.494 1.6148 11.3996
2 10.9162 9.95448 4.56693
2 10.6271 9.35175 11.6003
2 11.5723 0.441798 3.70526
2 1.08123 3.83374 9.71874
2 2.30595 11.4067 4.09578
1 9.18393 8.07874 8.73901
1 2.77431 12.2192 1.26092
1 1.61836 4.90106 8.36193
1 8.3483 1.22489 0.700148
1 1.02567 8.50967 9.03012
1 8.01873 11.8164 3.51044
1 11.5734 3.88534 7.88572
1 6.11903 1.37895 2.47295
1 1.10853 5.02756 5.27678
1 9.12731 2.53099 11.1221
1 10.0453 6.77668 5.59397
1 4.62826 12.1152 11.5147
1 10.6543 3.9049 4.99472
1 5.99458 2.53489 11.5121
1 0.38907 8.17996 5.36073
1 7.48913 11.2092 13.2523
1 9.61267 9.17543 3.59386
1 2.70867 10.9375 9.69918
1 3.08143 3.04882 3.66529
1 11.3291 1.21873 9.80067
1 1.65841 10.0749 3.09177
1 9.1115 9.91818 10.9479
1 10.9538 1.80659 2.56786
1 4.61313 3.56423 8.67835
1 0.964062 2.35542 1.22896
1 11.0141 10.6242 8.30008
1 11.9804 9.68154 1.04177
1 1.94892 1.44255 8.35218
1 11.3335 7.85198 11.6334
1 1.74305 0.250793 5.23053
1 1.03318 2.61508 11.384
1 11.4765 11.9491 5.0249
96
 Atoms. Timestep: 10000
2 11.1321 7.84262 5.43979
2 4.42819 1.13885 10.8309
2 11.8223 3.31309 5.26948
2 9.90896 1.49882 9.49502
2 0.29467 5.40755 7.90653
2 8.77265 3.36884 4.79973
2 7.42619 8.11327 7.32084
2 6.10679 3.33692 12.2501
2 9.23332 7.34492 6.78598
2 5.71802 12.1547 2.50955
2 1.78075 4.82961 6.63149
2 8.27683 2.49476 11.7781
2 0.355042 7.24447 7.25153
2 8.11347 9.16134 2.13001
2 10.3698 4.35452 6.73126
2 7.43582 2.1245 3.85295
2 10.1294 5.69981 5.07604
2 5.72394 9.74342 0.583649
2 0.440715 5.5898 5.21497
2 6.98478 1.94149 9.88599
2 2.16561 6.65289 8.12827
2 6.46307 2.92421 1.57292
2 9.85747 4.75235 9.1463
2 4.04289 12.0563 0.536929
2 9.01161 7.82566 10.0375
2 3.42639 10.0438 3.14836
2 3.98434 4.69505 8.233
2 9.09031 3.44945 0.855898
2 2.61415 8.43394 9.37773
2 6.02345 3.00787 6.4083
2 11.2497 3.07258 8.09757
2 4.33209 2.21704 3.10989
2 1.83436 3.38398 4.06718
2 9.10508 3.64616 9.47378
2 9.05182 8.63447 4.22174
2 4.19913 10.8261 10.5096
2 10.6937 3.70096 3.50308
2 5.32377 3.00667 9.20169
2 1.61938 8.0635 5.30669
2 8.22685 8.8197 12.296
2 0.465108 9.78013 0.380993
2 3.446 0.280133 6.55569
2 1.44918 2.39027 11.7918
2 7.71709 1.54566 5.92301
2 3.0584 1.59696 9.32632
2 12.7118 9.60354 8.25092
2 10.208 9.51751 8.16501
2 0.772753 0.160431 5.85108
2 11.8434 2.55276 1.48644
2 10.8742 10.038 10.7597
2 1.22627 9.45815 2.56959
2 4.03491 2.27956 7.32669
2 2.69143 2.09458 1.51243
2 3.35445 11.6726 8.89138
2 10.9131 9.66209 3.31651
2 10.8966 12.258 8.38816
2 0.93272 7.72863 10.7112
2 2.26873 0.941726 4.12304
2 12.4718 1.96069 9.67288
2 8.14688 11.2455 4.01059
2 11.0382 8.79397 12.3646
2 9.4677 0.792469 5.16771
2 1.84453 4.01148 9.35743
2 2.19955 10.5736 4.91428
1 8.98534 8.3116 8.21429
1 4.5091 10.9205 2.45031
1 2.1551 4.9555 8.10139
1 7.47337 2.91848 13.1481
1 1.10766 8.07417 8.66731
1 7.40609 2.96914 5.28475
1 11.1698 4.71311 8.46731
1 5.83868 1.65133 2.71143
1 1.02981 4.11691 5.35863
1 8.67769 2.24313 10.3463
1 9.42022 7.24256 4.95197
1 4.26869 12.0719 11.7538
1 10.0851 4.04657 4.8882
1 5.53327 2.55705 10.7767
1 0.285767 7.1138 5.75945
1 7.38649 8.87272 0.811771
1 9.18725 9.96251 3.38162
1 3.63124 9.834 9.39181
1 2.81202 2.13305 3.34452
1 11.2993 1.52681 8.57141
1 2.09149 9.34038 3.95913
1 9.68437 8.83735 11.4767
1 10.2739 3.21419 1.90078
1 4.93354 3.40728 7.58169
1 1.12619 2.21511 0.42137
1 11.3162 10.6232 9.02622
1 12.1086 9.94313 2.07797
1 3.53874 0.921061 7.92649
1 0.380663 8.98146 11.7748
1 2.37094 12.2483 5.47559
1 1.97361 2.59787 10.0438
1 8.18482 12.2559 5.39537
96
 Atoms. Timestep: 12000
2 11.2444 7.51709 6.29908
2 4.85912 1.80571 11.372
2 11.8348 4.45319 6.836
2 10.9034 1.08586 10.8764
2 1.46266 4.89615 9.11102
2 8.06615 2.80604 4.73321
2 5.14229 7.66298 7.91914
2 6.25442 3.11748 12.2746
2 8.23209 7.79397 7.25204
2 5.1163 11.624 2.86629
2 2.22884 5.34346 6.85667
2 8.2201 1.53819 0.304673
2 1.82661 7.78807 7.29088
2 8.57122 9.18333 2.37442
2 10.9154 5.38417 9.73226
2 6.15003 1.29217 4.02157
2 6.84462 4.77809 6.33259
2 8.56482 11.399 12.1544
2 0.934363 6.27158 5.12967
2 7.98715 2.08734 10.3392
2 2.43852 7.00545 9.03428
2 6.22672 2.77433 2.39588
2 10.1668 4.18818 8.209
2 6.6579 10.2851 1.11958
2 7.92556 9.1221 8.80989
2 3.93468 8.97902 2.89664
2 4.40626 4.6744 8.27199
2 8.70771 3.75887 1.411
2 3.30179 9.17139 8.91526
2 5.89008 2.09943 6.19285
2 11.8717 2.68822 8.84581
2 3.57987 2.62017 3.82752
2 1.69988 3.6652 4.87419
2 8.90922 5.88407 5.62067
2 9.22184 8.92818 5.33983
2 3.93135 11.2444 9.97369
2 9.71033 4.50416 4.17
2 5.88297 3.51799 9.13465
2 1.37838 8.29381 3.89894
2 8.32596 9.24198 11.8265
2 11.0403 7.2543 11.9032
2 2.80542 11.8719 5.2817
2 2.33461 4.40358 12.1918
2 8.42083 12.1895 5.02319
2 5.4266 10.7862 12.5075
2 0.614878 9.71869 8.95125
2 5.58052 9.51012 8.67936
2 11.592 0.544476 5.23038
2 11.1509 4.95074 1.14985
2 10.1313 10.0706 9.56671
2 1.38742 8.49823 1.58945
2 4.00272 2.8521 6.76607
2 1.53055 4.13789 2.09127
2 4.20006 11.836 7.67178
2 11.0848 8.4522 2.48354
2 11.8327 11.9664 8.61411
2 12.3981 7.59265 9.46105
2 1.28644 1.65287 4.03727
2 1.59247 2.26937 10.7614
2 10.4153 10.8086 3.92566
2 9.97323 8.1569 10.2718
2 10.1454 10.9319 6.61516
2 3.31974 3.98331 9.87586
2 1.47169 10.3511 3.45719
1 6.75706 8.66589 7.57984
1 5.12321 10.0018 2.53384
1 2.79908 5.21845 8.59357
1 7.22806 2.7742 1.20477
1 1.8992 8.46532 8.89012
1 7.37593 1.55245 5.13565
1 11.7233 4.21199 8.53599
1 4.76272 1.5922 3.18179
1 1.14248 4.91903 5.8067
1 9.03124 1.05724 11.3426
1 9.3388 7.36362 6.09291
1 4.84205 11.7182 11.2942
1 8.33779 4.49445 5.20913
1 5.46066 2.9861 10.6712
1 0.985038 7.96591 5.5014
1 8.23383 10.2295 0.969275
1 9.95219 9.21882 3.62135
1 4.34984 10.3934 8.59079
1 1.93079 3.0961 3.20064
1 11.8843 1.42084 9.77281
1 2.2946 8.788 2.82861
1 8.63266 9.16391 10.1509
1 10.1035 4.25496 2.23688
1 5.41529 3.64895 7.26553
1 1.21675 5.13429 0.923006
1 11.0339 10.6752 8.05866
1 11.5694 7.56114 1.11546
1 3.82794 0.812985 6.3596
1 10.9487 6.86372 10.4503
1 1.19536 11.72 4.68102
1 2.79821 3.18678 11.3329
1 10.03 11.9293 5.20583
96
 Atoms. Timestep: 14000
2 10.9748 7.54244 5.47848
2 6.23691 0.566366 10.2022
2 11.3181 3.42823 6.91893
2 10.6673 1.53518 11.5234
2 11.3148 5.26615 8.47771
2 10.1342 1.33542 5.13626
2 6.70037 6.62787 6.54698
2 5.05146 2.21347 10.9982
2 8.31014 8.19836 6.04029
2 5.39556 0.585938 2.60008
2 1.46888 4.34966 8.0354
2 8.79591 2.65714 0.680214
2 0.922969 7.98967 6.8495
2 8.11496 9.46596 1.50012
2 12.1328 4.78044 11.2766
2 7.79464 1.4732 3.37622
2 5.59881 4.2527 6.81902
2 8.52777 11.624 12.2069
2 0.940104 5.60991 5.63838
2 7.67397 1.94844 11.5123
2 1.58773 6.77637 8.361
2 6.69979 3.0891 1.70011
2 8.37085 4.74677 7.7676
2 6.58896 11.0401 1.31831
2 7.56121 7.98124 8.43636
2 4.19832 10.3717 2.92241
2 3.59441 5.15014 9.03823
2 8.77613 4.90936 2.19211
2 3.20176 9.02594 8.51328
2 8.16434 3.95432 5.46127
2 10.1936 2.55384 8.70207
2 4.99723 2.75239 3.8633
2 1.59478 2.38803 7.32172
2 10.0323 5.93388 4.6522
2 9.12793 7.89018 3.19924
2 4.90371 10.6964 9.34482
2 9.47058 3.54083 3.52039
2 2.09862 4.81769 10.2854
2 2.32928 8.46116 4.58334
2 8.14723 9.00335 11.6588
2 1.01011 7.38507 12.3103
2 2.648 0.782103 5.8389
2 1.1913 3.60888 0.801341
2 5.46515 3.53784 9.24313
2 4.96871 11.0033 12.2651
2 12.1567 9.78316 7.84841
2 5.7095 9.19173 7.256
2 0.494711 11.8011 4.80853
2 11.6495 5.17666 2.89501
2 9.40345 9.2686 8.84551
2 2.11134 8.73203 1.98027
2 3.80312 2.42862 8.13991
2 3.01058 4.38533 2.60664
2 3.92465 11.6334 7.42486
2 11.3492 9.09469 1.49952
2 10.9541 11.823 8.9178
2 12.2341 7.84803 9.68012
2 2.28626 2.01479 3.97574
2 0.877433 2.12503 10.7184
2 10.0219 9.67509 3.73775
2 9.10456 6.43151 10.452
2 10.4487 10.9103 6.05182
2 3.76898 2.98325 11.9053
2 1.94221 11.1913 3.33981
1 7.07617 8.30027 7.01142
1 4.93072 11.0369 1.58283
1 1.21206 5.36349 9.07028
1 7.90399 3.98824 1.15615
1 1.53 8.4655 8.53616
1 8.85144 2.44517 4.61001
1 9.8108 3.95669 7.8609
1 6.24461 1.80382 2.97395
1 1.12379 3.8089 6.22141
1 8.80558 1.3627 12.0882
1 9.48868 7.61591 4.91681
1 5.65386 10.9396 10.8372
1 7.0312 4.82875 6.56511
1 6.60266 2.24534 10.079
1 1.11451 7.36449 5.25142
1 7.4802 10.304 12.3883
1 9.80967 8.67026 2.04525
1 4.44165 10.0897 8.0595
1 3.6519 3.01428 3.22016
1 11.4221 1.45196 9.55304
1 2.67093 9.59317 3.27732
1 8.55072 8.33537 10.0889
1 10.1368 5.21028 3.13645
1 4.46873 4.3068 8.08442
1 1.44036 4.45572 2.27455
1 10.6253 10.4692 8.03552
1 0.882804 7.81547 1.58186
1 2.96069 1.28384 7.30798
1 11.933 6.57038 11.0665
1 1.91238 0.530686 4.47962
1 1.91847 3.50981 11.2212
1 10.4694 11.5026 4.63974
96
 Atoms. Timestep: 16000
2 11.1114 7.17617 5.06567
2 4.14828 2.12324 11.7378
2 11.6366 3.68383 5.99267
2 10.2387 1.87292 10.5664
2 1.35055 5.3573 7.36687
2 9.19755 1.50925 5.96693
2 7.69976 6.20264 8.32156
2 5.52664 4.11451 12.4181
2 8.05799 7.49446 6.69852
2 6.35034 1.15308 2.04903
2 4.29151 4.28952 7.54927
2 9.74027 2.07389 1.24103
2 2.0642 7.70355 6.03077
2 7.88994 10.0376 2.67368
2 0.878359 5.55922 11.5079
2 6.87726 1.66883 4.49368
2 9.65824 4.92707 8.07577
2 8.87658 11.3592 12.1856
2 1.71651 5.26958 4.65463
2 7.68325 2.24585 11.9003
2 2.71674 6.82256 8.24255
2 5.83687 3.6235 2.80454
2 10.5124 6.37263 6.93221
2 6.49406 9.38327 1.08203
2 7.78523 8.41165 9.30881
2 3.63746 8.65694 1.83428
2 6.63526 3.62284 8.19729
2 7.74747 5.15334 2.77186
2 3.39941 9.22031 7.67443
2 8.17114 3.68077 6.29621
2 11.521 3.62698 8.70845
2 3.86697 2.30039 3.09212
2 3.31015 2.791 5.25069
2 8.48305 5.57241 5.2837
2 8.93196 8.07702 4.09946
2 1.59017 10.5461 11.6842
2 8.01927 3.29978 4.1833
2 2.81703 4.71891 9.9943
2 1.5474 8.19381 3.57316
2 8.49652 8.84389 12.165
2 11.8915 7.98846 11.7373
2 4.80707 1.00775 4.51353
2 11.5608 3.88454 12.3848
2 4.97177 2.73022 9.60529
2 4.33657 10.9198 12.3473
2 1.11585 9.53904 7.80856
2 5.91133 8.87208 7.90138
2 11.3958 11.8972 4.53518
2 10.0256 3.43725 3.1876
2 10.1823 9.24052 9.03243
2 1.79159 8.80435 1.10921
2 4.60095 1.75981 7.34474
2 1.14366 2.19689 2.36494
2 4.41276 10.9551 6.0602
2 10.9904 9.33398 1.95938
2 11.7125 11.9189 8.49711
2 1.08567 7.76447 9.01376
2 1.75247 1.88142 4.44463
2 1.27469 2.8009 10.6356
2 9.84401 10.7339 4.10013
2 10.4899 9.88064 11.0939
2 10.1349 10.517 6.53379
2 2.52665 3.60424 0.754328
2 2.2843 10.9537 3.02931
1 7.18133 7.90937 8.03882
1 4.84219 9.52252 1.08184
1 3.00231 5.1904 8.1595
1 6.29559 4.86112 1.54721
1 1.94821 8.3675 7.82173
1 7.76613 2.29737 5.8176
1 11.0908 4.65432 7.34801
1 5.65467 2.00198 3.46848
1 1.77402 3.60626 5.16919
1 8.92497 1.37824 11.5233
1 9.27463 7.04845 5.69832
1 3.15552 11.6599 11.9219
1 7.88057 4.71808 8.05508
1 5.69474 2.75599 11.3918
1 1.18107 6.75889 4.61131
1 7.89508 10.0753 0.933969
1 9.47436 9.46686 3.22084
1 4.90949 9.89872 7.05435
1 2.83301 2.56263 1.94963
1 11.6639 2.16886 9.49872
1 2.35123 9.26288 2.56485
1 9.19113 9.00124 10.2391
1 8.76788 4.6219 3.76786
1 5.12454 3.0901 8.12194
1 11.0721 2.89901 1.8554
1 10.8129 10.427 8.22097
1 11.762 9.45698 12.4182
1 3.86551 1.19246 5.81545
1 11.8918 6.82834 10.3377
1 1.19914 0.839507 3.41163
1 1.95886 4.18975 11.4
1 10.1326 11.4412 5.35066
96
 Atoms. Timestep: 18000
2 11.4864 7.42554 4.32506
2 3.15635 11.1296 10.9936
2 0.937651 3.86287 5.86033
2 9.22473 2.38441 9.86737
2 1.84331 4.7866 7.68896
2 9.56276 1.46701 5.08239
2 8.17598 6.45577 6.45054
2 5.47841 3.3808 1.68285
2 9.36148 8.41017 6.03953
2 3.58654 1.01195 4.15709
2 4.04395 5.64954 8.5129
2 9.6483 2.21414 12.0381
2 2.24837 7.86424 6.31951
2 8.38719 9.54722 1.95721
2 11.2679 4.86306 11.6755
2 7.16591 1.54019 5.1443
2 9.48343 5.49023 7.70248
2 8.61348 10.8898 11.1377
2 2.37747 5.28986 4.36074
2 7.1253 1.99194 11.8884
2 2.12488 7.29748 8.32647
2 4.91797 3.09059 4.06913
2 11.2774 6.09461 6.18725
2 6.70817 8.73653 11.6541
2 8.7631 7.79632 8.29366
2 4.40491 8.8423 1.79791
2 6.44371 5.26868 8.2662
2 7.28052 4.59786 2.22885
2 3.87273 9.50643 7.29078
2 8.1861 3.66215 6.54375
2 10.258 3.59957 7.66665
2 2.20118 0.959783 1.97083
2 3.42763 3.11362 6.45208
2 9.49392 6.07384 3.69736
2 8.83698 10.0321 7.23709
2 1.1077 9.60129 11.4073
2 8.91981 3.73674 4.34975
2 1.91245 5.2807 10.4255
2 3.13534 8.18579 3.97688
2 9.16396 8.37708 10.9058
2 10.6388 7.69038 12.4406
2 5.28131 2.2827 6.30854
2 11.627 3.00675 12.4814
2 5.57943 4.29196 10.9179
2 4.04967 9.27279 10.8236
2 1.84339 9.82387 8.83233
2 6.47373 9.62576 7.2213
2 0.896802 1.20229 4.9232
2 9.19346 3.01937 2.3194
2 10.4787 9.37524 8.69755
2 1.96774 8.65356 1.64268
2 4.54009 3.3063 9.00368
2 11.4354 1.12242 2.85331
2 5.00834 0.888449 7.725
2 10.9194 8.8712 2.52791
2 10.5882 0.833822 8.44675
2 10.249 6.54271 9.57452
2 2.27881 2.75823 3.62565
2 11.647 3.08265 9.78449
2 9.40098 10.5859 4.63573
2 10.9073 10.6755 12.4865
2 11.0245 10.8426 6.78403
2 2.49384 2.67874 11.5492
2 2.333 10.5879 3.65899
1 7.83244 8.41159 7.02155
1 5.09284 8.92524 11.8913
1 2.45031 5.64102 8.86454
1 5.75036 4.34253 2.95716
1 2.45129 8.73386 7.65877
1 8.34062 2.52711 5.44003
1 11.2282 4.76311 7.17445
1 5.18114 1.54079 4.96514
1 2.34139 3.75112 4.94392
1 8.60079 1.40081 11.134
1 9.93099 7.29605 4.90555
1 2.41936 9.8068 10.6248
1 7.95129 5.05953 7.28372
1 5.74276 3.16532 11.8785
1 1.93185 6.96315 4.76387
1 8.30538 9.38181 11.7729
1 9.55754 9.54703 3.08435
1 5.00944 10.5042 7.75048
1 2.79945 1.19516 12.3211
1 10.3751 2.56689 8.71515
1 3.0996 9.4705 2.72909
1 9.79118 8.11164 9.27467
1 8.59052 4.74721 3.11566
1 5.12796 4.76866 9.12369
1 10.6426 2.23205 1.95711
1 11.5173 10.5977 8.47995
1 11.6428 9.09055 1.0931
1 4.15885 2.30687 7.71707
1 10.3056 6.25437 11.4893
1 2.01404 1.04725 3.72096
1 1.18749 3.79294 11.0778
1 10.5652 11.5792 5.42728
96
 Atoms. Timestep: 20000
2 11.901 6.5843 5.50669
2 3.1509 10.9306 12.2719
2 11.6289 3.6 6.24141
2 9.19143 2.22545 9.86858
2 1.69724 5.22941 8.28002
2 9.57177 1.31369 5.85267
2 7.50646 5.80781 6.73888
2 5.79679 5.00854 0.736081
2 9.38619 8.43598 5.76982
2 4.66535 1.06939 2.39843
2 3.93037 5.2955 9.03751
2 9.68037 2.07569 0.706247
2 2.47192 7.0384 6.52168
2 8.64149 10.5704 1.71258
2 9.16388 4.23992 11.4859
2 7.3013 2.21307 4.70959
2 9.17768 5.47853 9.13705
2 7.85193 1.43292 12.1761
2 2.40165 4.55273 5.44892
2 6.61416 2.88616 11.0589
2 2.733 7.21481 9.55603
2 6.79431 3.33431 2.52855
2 10.468 5.9679 7.0158
2 6.65789 10.0595 0.95197
2 7.60419 7.21219 6.17965
2 4.52972 9.07752 1.82555
2 6.71914 4.40571 8.43856
2 8.0475 5.65174 3.02646
2 3.87112 9.12011 8.00069
2 8.67369 3.08045 7.17915
2 10.4407 3.30418 7.79138
2 2.16387 11.8986 2.33696
2 3.16458 2.16127 6.07905
2 10.1256 6.25395 4.15309
2 8.25646 10.5479 6.32775
2 1.34275 9.24631 10.5741
2 9.31983 3.55847 4.62378
2 2.49023 4.66278 11.1511
2 2.41229 7.71909 3.9251
2 8.19294 10.5593 10.5447
2 10.9454 6.98735 10.6416
2 4.99305 2.21524 4.90915
2 11.6583 3.53495 1.26281
2 4.8865 3.68489 9.93135
2 4.40311 9.77765 11.0155
2 1.53473 11.0522 9.67652
2 6.40084 9.71752 7.25547
2 11.674 10.9363 4.87215
2 10.26 3.96351 2.70367
2 10.2275 9.26141 8.79492
2 1.75354 8.458 1.2174
2 4.62251 2.85252 7.74424
2 11.018 1.06163 3.04973
2 4.64414 11.3902 6.11841
2 10.8381 8.92295 1.35561
2 10.9778 0.776965 8.3345
2 9.06078 7.63352 11.0102
2 1.27745 1.67079 4.80496
2 0.738765 2.68451 10.2381
2 9.36049 11.0522 3.80445
2 10.4469 9.24912 11.2743
2 11.0974 10.2228 6.74691
2 2.86953 2.54948 12.4666
2 2.55296 10.2873 3.49328
1 7.60437 9.01408 6.40391
1 5.45886 9.1924 12.0867
1 2.53556 5.56355 9.8349
1 6.43674 5.03878 2.34035
1 2.72031 8.05743 8.05587
1 8.54088 2.44838 5.48511
1 11.5208 4.85654 7.48307
1 5.64816 2.10873 3.36714
1 1.92589 2.94359 5.4916
1 8.58483 2.76054 11.3253
1 10.3155 6.99539 5.73765
1 2.89978 10.4698 10.7559
1 8.18317 4.59209 7.85846
1 5.4786 4.15585 11.3174
1 2.16762 6.18575 4.92231
1 7.94462 10.7832 12.1842
1 10.3712 10.5993 2.29804
1 4.82494 10.1406 7.09213
1 3.17114 1.06225 1.36923
1 10.7999 2.28556 9.05797
1 2.89732 8.77015 2.6484
1 9.11377 9.10025 10.1797
1 9.39817 4.95815 3.61017
1 5.1091 4.3 8.47474
1 10.4588 2.47183 2.11517
1 11.5166 10.4221 8.28218
1 11.7511 8.3529 11.7395
1 4.83899 1.7501 6.43106
1 9.0081 6.08745 10.8288
1 1.52024 11.6861 3.70338
1 1.39533 3.66646 11.814
1 10.0607 10.9754 5.60396
96
 Atoms. Timestep: 22000
2 11.0871 7.34381 5.64839
2 2.27332 11.2799 11.7895
2 1.05729 3.46867 6.73036
2 11.2438 2.97478 10.6283
2 11.3663 3.08619 8.57409
2 8.36335 1.13253 5.64637
2 1.77799 4.9275 9.41288
2 5.87841 3.17274 11.3834
2 8.29901 7.11427 6.31183
2 4.08647 11.0442 1.83211
2 4.79378 5.82421 9.16484
2 11.1719 2.21448 0.912103
2 2.05026 8.1894 6.28979
2 7.83454 10.9111 1.68622
2 9.49622 4.28291 11.5516
2 6.38862 1.45707 3.55701
2 9.2573 6.29433 10.4207
2 6.30761 11.4916 10.9682
2 2.06289 5.23492 4.79473
2 8.21366 2.27286 10.5927
2 2.18329 7.54875 8.7362
2 5.4465 2.87296 2.44445
2 10.5311 5.33757 6.32216
2 5.62575 9.34722 12.2148
2 9.12951 7.54072 8.80552
2 3.52735 8.34442 2.24384
2 7.20319 5.95826 8.71291
2 7.58899 4.2867 2.06964
2 3.33915 9.59335 6.93538
2 6.4659 2.27781 5.74576
2 9.25195 4.6953 7.98463
2 3.81544 1.9731 1.57911
2 3.49295 2.93782 6.03741
2 9.48288 5.59727 3.93418
2 8.8769 10.0787 6.89751
2 11.6797 9.46043 11.2795
2 7.95775 3.6178 4.58304
2 2.90785 5.92357 11.1458
2 2.7196 7.59904 4.10936
2 7.73921 9.50706 10.5466
2 10.6334 6.62473 0.814488
2 4.21292 1.58442 4.68571
2 1.99022 3.94283 1.88701
2 6.27303 2.94237 8.87436
2 3.26768 9.05193 11.6609
2 1.63143 10.0825 9.11296
2 6.29945 9.13338 6.53789
2 11.2322 0.526351 4.76761
2 10.1829 4.01676 2.61125
2 10.4297 10.4529 9.16024
2 0.962581 7.74845 1.93554
2 5.02163 3.82432 7.48273
2 0.859139 1.64307 2.7102
2 4.87826 11.6381 6.78619
2 10.282 9.74233 1.4013
2 1.55922 1.51881 9.15427
2 11.5167 5.81463 10.0441
2 1.08935 3.25791 3.98161
2 2.72511 3.01773 11.0337
2 9.65043 10.642 4.10175
2 9.81111 8.77302 11.3886
2 10.7788 0.824242 7.3801
2 4.19063 3.91859 0.904563
2 1.84219 9.98452 2.89783
1 7.79058 8.6985 6.76633
1 4.26073 9.38847 1.14912
1 3.22616 6.23475 9.64772
1 6.10074 3.80934 1.34672
1 2.10946 8.84724 7.95428
1 7.62881 2.10652 4.62068
1 10.4896 4.0151 7.28694
1 4.59402 1.19897 2.85996
1 1.95171 3.39532 5.36497
1 9.6955 2.66112 11.5999
1 9.5749 6.48948 5.44519
1 2.01606 10.0559 10.7645
1 8.65734 5.58904 8.94593
1 6.68478 2.08289 10.3806
1 1.87678 6.89294 5.28139
1 6.93248 10.1577 11.7085
1 9.21371 10.5165 2.6004
1 4.83907 10.0985 6.41699
1 2.59813 1.86476 12.0923
1 1.60278 3.1499 9.61925
1 2.04528 8.45375 2.85344
1 9.20535 9.16832 9.84437
1 8.77498 4.33168 3.19225
1 5.86988 4.7637 8.66145
1 11.5772 3.32012 2.25754
1 11.7197 11.3468 8.56116
1 10.8964 8.30256 0.769681
1 4.98606 2.15156 6.2198
1 10.3536 5.50949 11.3487
1 1.24545 11.5741 3.67657
1 2.85298 4.84478 0.7084
1 9.81497 11.4295 5.8749
96
 Atoms. Timestep: 24000
2 0.485216 7.07693 4.86764
2 2.60254 11.449 11.4967
2 0.678048 4.03004 6.63485
2 11.2268 1.56356 11.3806