LAMMPS data file via write_data, version 2 Aug 2023, timestep = 100000, units = metal

96 atoms
2 atom types
0 bonds
1 bond types

0.7839405880583721 11.805522080941634 xlo xhi
0.7839405880583721 11.805522080941634 ylo yhi
0.8233343807840896 12.398761284215396 zlo zhi

Masses

1 28.0855
2 15.9994

Atoms # full

43 1 2 -0.55 2.9516900158343278 3.248716896057342 2.256505519183839 0 0 0
83 1 1 1.1 2.898108841634857 2.5398668268352127 3.724432270177208 0 0 0
47 1 2 -0.55 4.359475284163013 2.3635521721365693 0.9135214700271377 -1 0 1
24 1 2 -0.55 6.37680411582807 11.678985132288535 3.120323728996464 0 0 0
38 1 2 -0.55 7.140706279190421 2.7494277652016477 1.3878533445982661 0 0 1
70 1 1 1.1 7.487790505896637 1.8290428108502115 2.7895344983882566 0 1 0
59 1 2 -0.55 10.157451475863635 3.2526381948761003 3.6916608379305456 0 0 1
15 1 2 -0.55 0.9364119946250887 5.578917818749834 1.8741264188837221 1 0 0
77 1 1 1.1 0.9451189862265733 6.361769005138324 3.321523892672362 1 0 0
95 1 1 1.1 9.524402341450656 4.71218034958444 3.3104576714116365 -1 0 1
61 1 2 -0.55 9.566430658662846 4.457699510861136 1.638921058632834 0 1 1
39 1 2 -0.55 0.9486917123948047 7.967891095428712 2.9261246612523455 0 0 0
66 1 1 1.1 2.669709950748353 10.868972115052642 1.1105675280723046 0 0 0
26 1 2 -0.55 1.4441577789705715 10.382739959228452 2.090540327432727 0 0 0
8 1 2 -0.55 4.1052571066408845 10.814203067453427 1.8374621790203387 0 -1 0
94 1 1 1.1 4.848014484893038 11.16448097495985 3.232783368329058 0 -1 0
35 1 2 -0.55 8.203210596239867 11.714961462943357 1.8297181874165083 0 0 0
45 1 2 -0.55 7.527065230257399 9.749721388603518 2.280590355184252 -1 -1 0
91 1 1 1.1 8.465448332073088 9.48912564380057 3.6129757630856463 -1 0 0
80 1 1 1.1 7.596867339328155 10.567041280495005 12.396736645577668 0 0 0
85 1 1 1.1 11.27426254800842 9.273470825333657 2.228592494009555 -1 0 0
51 1 2 -0.55 9.98319952394851 9.834625726181262 3.062367118141417 -1 0 0
40 1 2 -0.55 10.75988759328122 9.100399329425521 12.247579533042183 0 0 0
28 1 2 -0.55 1.401692541645482 1.973408032077924 4.025409336532563 1 0 0
33 1 2 -0.55 3.2793092026784736 3.6462917327951354 4.838613647592628 0 0 0
58 1 2 -0.55 3.99880978263104 1.3512559056357236 3.9157335616774542 0 0 0
32 1 2 -0.55 5.8694812066923125 3.3631024123451176 5.865447582811948 0 0 0
4 1 2 -0.55 7.85033092598703 2.5327521765093453 4.213568747504112 0 -1 0
87 1 1 1.1 10.972060705099196 2.2901349903994612 4.7169785105867055 0 0 0
37 1 2 -0.55 11.149352282728533 3.063983816366511 6.123501167537216 0 0 0
49 1 2 -0.55 10.232388801770888 0.8912654740626812 5.036224469049602 0 0 0
79 1 1 1.1 2.849005691511098 5.021567978985553 5.577879167070786 0 0 0
19 1 2 -0.55 2.102212742400752 5.9955708647573225 4.456322968007601 0 0 0
13 1 2 -0.55 4.33787237170259 5.56393465873614 5.990811856575846 0 0 0
68 1 1 1.1 7.344699424935367 3.7211316859749854 5.231080077773544 0 0 0
22 1 2 -0.55 8.060520858522544 4.609596603186137 4.040605481938339 0 0 0
2 1 2 -0.55 8.191456828990496 4.344299290408681 6.490111739580175 0 -1 0
17 1 2 -0.55 10.408440833151822 6.022920710609248 3.8981325377612617 0 0 0
18 1 2 -0.55 5.091258042429584 8.041903776259534 6.186414901910445 0 0 0
62 1 2 -0.55 8.64951877606957 7.971776706736501 4.18226839053481 0 -1 0
29 1 2 -0.55 9.208554783135579 6.640786983106688 6.502983796178407 -1 0 0
23 1 2 -0.55 11.048404318659628 8.167398744928839 5.133428578632461 0 0 0
75 1 1 1.1 9.76231820434585 7.122435186874229 5.029675701466893 0 0 0
60 1 2 -0.55 2.616362261103181 8.830354241618743 5.329471302978674 1 0 0
96 1 1 1.1 1.1567858441123369 8.915422207882688 6.131212482239367 1 -1 0
76 1 1 1.1 4.1897889939126625 9.240664600673568 5.543375109062219 0 0 0
48 1 2 -0.55 4.8006487325288285 9.852383190069265 4.181464974309034 0 -1 0
30 1 2 -0.55 8.48185174495621 10.255849676377814 5.069104377013704 0 0 0
81 1 1 1.1 9.620503278366353 10.850088866433811 6.121121028787794 0 0 0
55 1 2 -0.55 10.725184073241422 9.680288984546511 6.491260716589914 0 0 0
36 1 2 -0.55 2.3127450099820877 2.0332778373985567 7.31419426202371 0 1 0
73 1 1 1.1 1.0823431169330777 3.159816908846509 7.454319746998657 0 0 0
64 1 2 -0.55 4.231420884029486 1.38781969932628 6.930823720316641 0 1 0
78 1 1 1.1 5.177274426677608 2.7042468774176935 7.209635764547268 0 0 0
20 1 2 -0.55 6.492602219731377 2.5086990933813076 8.223955490451342 0 0 0
56 1 2 -0.55 8.733748107697412 2.2638038602935238 9.516870600338288 0 0 0
84 1 1 1.1 7.392698384155756 3.2312928379437884 9.45936841162056 0 0 0
42 1 2 -0.55 11.269360485229985 2.050666246251505 8.410529097890745 -1 0 0
90 1 1 1.1 9.896967222841045 1.291258802366591 8.883778551703632 0 0 0
1 1 2 -0.55 1.9489908291959848 4.464744434913302 6.842290120798384 0 0 0
54 1 2 -0.55 4.474797323514392 3.6562392606570233 8.341759906303125 0 1 0
71 1 1 1.1 8.27058675866052 5.632861959090172 7.498106199016137 0 0 0
31 1 2 -0.55 7.6934369284446955 4.733676407962923 8.790494823223302 0 0 0
21 1 2 -0.55 6.736927673602201 6.343470086314186 7.495110602235229 0 0 0
11 1 2 -0.55 11.452542011361675 4.012511614013955 8.751587598877794 -1 0 0
5 1 2 -0.55 9.62326141363856 5.968958462243023 8.486301834009312 -1 0 0
67 1 1 1.1 10.956480356190088 5.447796584643224 9.344464193927019 -1 0 0
7 1 2 -0.55 1.4046464738024533 6.172936390661915 9.210446462698224 0 0 0
3 1 2 -0.55 1.5564867207715638 7.668901154446261 7.131390407820448 0 0 0
65 1 1 1.1 2.447526914285935 7.1245183774959 8.39820785367866 1 0 0
25 1 2 -0.55 2.75916949978604 8.423349770518909 9.300715851184684 1 0 0
9 1 2 -0.55 3.9658144634321078 6.572856105650087 8.082780448063321 1 0 0
69 1 1 1.1 5.182781524638503 6.601089348091463 6.969325974416633 0 0 0
63 1 2 -0.55 1.7062650393343044 10.489892222657975 6.512389708192907 0 -1 0
92 1 1 1.1 2.850868529953611 11.460613412163458 7.322426787346486 0 -1 0
46 1 2 -0.55 2.571031760519037 11.018873046124831 8.8781800965862 0 -1 0
10 1 2 -0.55 4.001255009621541 10.443473956329349 6.634954682967032 0 0 -1
44 1 2 -0.55 9.245355709637192 11.537951906235918 7.567789089980185 0 -1 0
53 1 2 -0.55 2.3760285643534917 1.3186607764969651 12.088057929164824 0 0 -1
89 1 1 1.1 2.738857805616424 2.9158322684862337 12.225802621592678 0 0 -1
52 1 2 -0.55 1.1341335622594968 3.4439936570430807 12.191803387348104 0 0 0
72 1 1 1.1 5.908590253801537 2.1667757609727225 11.91862852640871 0 0 -1
16 1 2 -0.55 5.963242235694066 3.066287206401935 10.47312606190715 0 0 -1
14 1 2 -0.55 3.310680748460244 3.791955490678848 10.960015347578135 0 1 -1
82 1 1 1.1 4.571067679858414 3.8504484520048763 9.948680279962094 0 1 0
74 1 1 1.1 8.173742593651358 3.970747568628803 0.8254208330212514 0 0 1
34 1 2 -0.55 7.981870002942481 4.071558141316404 10.801433431690878 0 0 0
88 1 1 1.1 11.065125991100697 4.673804793953229 12.397229554040454 -1 0 0
27 1 2 -0.55 10.64499535771268 5.323420235085012 10.950665024193873 -1 0 0
93 1 1 1.1 2.112379985272067 9.783174569995772 9.842701059209244 0 0 0
41 1 2 -0.55 2.661970896829537 9.940900314354376 11.359460598053726 0 0 -1
12 1 2 -0.55 6.416174487169024 11.601270178025104 11.827908735331018 0 -1 -1
6 1 2 -0.55 8.598115193424773 9.900969392075787 11.29854907301523 0 -1 -1
57 1 2 -0.55 11.507978678236498 9.545494703561971 9.913053064501556 -1 0 0
50 1 2 -0.55 10.25562094531027 11.381851705171734 10.21887240736215 0 0 0
86 1 1 1.1 10.202759018497702 9.863631462316498 10.894513472904372 0 0 0

Velocities

43 0.5823496509023733 0.5375025055854602 -0.532953820663975
83 0.1053954171617333 -1.1301919217356025 0.9674575747268528
47 1.5267919668735899 -1.3063299597230356 0.48484300937489133
24 0.7514881372651168 0.5925086153013119 -1.2180352322593546
38 0.8396947787587898 -0.3680389858384607 -0.6313937787946164
70 0.07307277531058894 0.6658931575171595 1.0659144060335535
59 2.6501555601914077 0.0821645246832821 0.9902291943318239
15 -1.1438837244032518 -1.3592854701172812 1.1303171411156938
77 -0.3554219235280394 0.41171242555025017 -1.325119274553408
95 0.8789716026321217 0.8231337576702861 0.21156630534576026
61 -0.004796883267319673 -0.19485960598029464 -0.3766119977231377
39 -0.5007908547769742 -0.4442862822895503 -0.04176622327193251
66 -0.16038505320718385 -1.1725700222866347 -1.0187273324426562
26 0.23647126657167877 -0.20175147219352324 0.7804629407675464
8 0.32548121734997687 -0.0981945034546292 0.6944708118617148
94 0.05994026538939373 -0.068619531538441 0.6805149633099944
35 0.3885241328397311 -0.015961418512515316 0.8607935284591445
45 1.0622653989779904 0.7726223280203243 0.731939851109659
91 -0.22267724089770127 -0.6776087281469195 -0.36015805051470345
80 0.33566472789644264 0.118406327347726 -1.0782122870570874
85 0.11878585495062005 0.0013732168676370152 0.6038117950675015
51 -0.5897603838975455 0.47183862431954743 -1.2499572753546233
40 -1.8038543292655551 -0.6033017585380102 1.1290504013626694
28 0.38967014453597504 0.7739614991390124 -0.22365274368427154
33 -0.9225353136843621 0.24347702574285027 0.2811311563378623
58 1.1032329729456851 -1.8449225983614082 -0.9557586039064933
32 -0.8219191755233333 0.16022353409653958 -1.5840146445508525
4 0.48081973610210843 -0.10729009328493269 0.4519149920901661
87 0.5384938985490423 -0.3828300235277628 0.6196991403520403
37 1.0435305323204176 -0.9982044362948355 -1.7167618109310578
49 1.1745264103951323 -0.7887792158427206 0.16412652441730627
79 -0.00027711121580028213 -0.05217090447309703 -0.21649595121078818
19 -0.9046507349675443 -1.7804023269448348 -0.32279058095549407
13 1.5937086951231751 -0.7547705345378398 1.4567506835075608
68 0.35109535709686573 0.2916512887589192 0.7967870360089448
22 1.1294218713460376 -1.2422929424320646 -1.3691665911249802
2 1.298798641224226 -0.738365356624232 -0.05957089816772179
17 -0.44131805145452474 0.8715744836332684 -0.06420457447796919
18 -0.08867888136306659 1.6274213566056004 0.16025673840319168
62 -0.1609311499218489 -1.7802534798426792 0.3934268449915638
29 0.14496908340673773 -0.5865992168219338 0.5363701787586876
23 -1.6868698952482117 0.19335458784272003 -0.0903273038286729
75 -1.3730596870287455 -0.6454244508604609 -0.27463587852094373
60 -0.7311213767975101 -1.211685542312254 -0.24454189137106824
96 -1.1769191791708258 1.094814874989723 -0.2837952197679021
76 -0.13924048525068322 1.3008911661352385 0.21348745548451442
48 -0.138718857654613 -0.5529665123986404 0.5329670776719677
30 1.5459400159774959 1.1426633648586881 0.09730726522642563
81 -0.14908596327270995 0.7330267983976765 -0.5131304266428937
55 -0.5133209159636624 1.7361340802152436 -0.07987385519667342
36 -0.8884935018714001 -2.002179197958897 0.7939616499539595
73 -0.3936414724748598 0.7336365761022394 2.580971451292807
64 -0.4847244084092932 -0.516537359208384 -0.839087934135387
78 0.8308237408827465 0.14967059235924568 -1.301028874783544
20 -0.5667101466017288 1.0163515722071481 1.4432882573740293
56 0.618110011803283 1.7984814011567658 -0.4149916462873229
84 -0.7025843116684768 -0.6158103044851388 0.8237828469150006
42 -1.9991972147156098 -1.0704408589286114 0.5850743472459929
90 -0.4996061043304274 0.3162975891760331 0.6470548618001504
1 -0.3961090436991802 1.1451721725561659 0.43194340810205617
54 0.9472173960016215 -0.638805799317399 -0.7285962330246172
71 0.7545899363666866 0.2660435652414694 -0.7311035041738884
31 0.4268916233258689 0.8307575774735523 0.004294678356109317
21 0.8898310045670502 -1.2420271491096357 -0.05558002918675577
11 0.5969073152136161 -0.8888920365323382 -2.4188167462377477
5 -1.3204196249531182 1.3930660967575064 0.6398454336334779
67 0.1078565202127887 -1.5957976583459124 1.1984093514693426
7 -0.7463413580812086 -0.3146032538150981 1.719840768623815
3 -1.3757374805828038 -2.242192003969875 -0.0875275835535042
65 0.0360437464332329 0.8775258993620242 0.29331970634475635
25 -0.11430639040333859 -0.5852965922866117 -0.4567784123936135
9 0.47240467251078727 0.7345032921118727 -0.17210006442157835
69 -0.09859493687957935 0.7398600040668294 -1.226764427045755
63 0.9167296946259486 0.8417331038320635 -1.0561925746607848
92 -0.937772039282524 0.8062821892503443 0.555120059116561
46 -1.363633318590379 -0.0055304520312208115 -0.8903593352879098
10 0.5553062563372129 0.18355767828360836 -0.5279464396004998
44 -0.1734402625225151 1.2844002332476152 0.5075292065960494
53 -0.5222630889605401 -0.6736401584889151 0.05120647172836111
89 0.7322110172585441 -0.5948153722540976 -1.1772040493179856
52 0.828093433361268 -0.42031683948470794 0.5968324952270001
72 0.6153819336030514 0.21144594280035592 -0.12195048304776582
16 -0.6143522123430248 0.48127226431238873 -0.2666710965417736
14 -0.16118767414501045 0.2955540401068485 -0.5767962775904703
82 -0.05660639953540034 -0.08742470113923963 -0.22191922710090772
74 -0.8213306100693784 -0.33080817319560835 0.9281648533690107
34 0.3282116757170115 0.9799782092840262 -0.6733936499151937
88 -1.2598538223642601 -0.33820582199143867 0.8426625392292699
27 -0.08865671793498012 1.0118049169393224 0.2635376576271465
93 0.4982628153416207 -0.18974989801901257 -1.2034425961063768
41 -0.18053494770408168 0.10797805031463023 0.7030656561146938
12 -0.3725694281330239 1.451486577711304 1.277757514507641
6 -0.21469853223631935 0.2037494398986547 0.023940147887611014
57 0.6295547869281339 1.1208957973305034 -0.49131851391929293
50 0.4699727426775791 -0.11109128862722725 -0.06610024840086304
86 0.08275589059925109 0.3933905583848563 -1.653081941307631
