96
 Atoms. Timestep: 0
2 0 7.95642 4.74695
2 4.63304 0 11.358
2 0 4.63304 4.74695
2 7.95642 0 11.358
2 0 4.63304 8.47514
2 7.95642 0 1.8641
2 0 7.95642 8.47514
2 4.63304 0 1.8641
2 10.7421 8.43088 6.61105
2 4.15858 10.7421 0
2 1.84736 4.15858 6.61105
2 8.43088 1.84736 0
2 1.84736 8.43088 6.61105
2 8.43088 10.7421 0
2 10.7421 4.15858 6.61105
2 4.15858 1.84736 0
2 10.5201 6.29473 5.04003
2 6.29473 10.5201 11.6511
2 2.06934 6.29473 5.04003
2 6.29473 2.06934 11.6511
2 2.06934 6.29473 8.18207
2 6.29473 2.06934 1.57102
2 10.5201 6.29473 8.18207
2 6.29473 10.5201 1.57102
2 10.1594 8.65935 9.20274
2 3.93011 10.1594 2.59169
2 2.43004 3.93011 9.20274
2 8.65935 2.43004 2.59169
2 2.43004 8.65935 9.20274
2 8.65935 10.1594 2.59169
2 10.1594 3.93011 9.20274
2 3.93011 2.43004 2.59169
2 2.43004 3.93011 4.01936
2 8.65935 2.43004 10.6304
2 10.1594 8.65935 4.01936
2 3.93011 10.1594 10.6304
2 10.1594 3.93011 4.01936
2 3.93011 2.43004 10.6304
2 2.43004 8.65935 4.01936
2 8.65935 10.1594 10.6304
2 0 10.703 0
2 1.88643 0 6.61105
2 0 1.88643 0
2 10.703 0 6.61105
2 0 0 1.872
2 0 0 8.48305
2 0 0 11.3501
2 0 0 4.73905
2 11.2706 2.31295 2.18973
2 10.2765 11.2706 8.80078
2 1.31887 10.2765 2.18973
2 2.31295 1.31887 8.80078
2 1.31887 2.31295 2.18973
2 2.31295 11.2706 8.80078
2 11.2706 10.2765 2.18973
2 10.2765 1.31887 8.80078
2 1.31887 10.2765 11.0324
2 2.31295 1.31887 4.42131
2 11.2706 2.31295 11.0324
2 10.2765 11.2706 4.42131
2 11.2706 10.2765 11.0324
2 10.2765 1.31887 4.42131
2 1.31887 2.31295 11.0324
2 2.31295 11.2706 4.42131
1 11.0086 7.83654 8.10972
1 4.75292 11.0086 1.49867
1 1.5809 4.75292 8.10972
1 7.83654 1.5809 1.49867
1 1.5809 7.83654 8.10972
1 7.83654 11.0086 1.49867
1 11.0086 4.75292 8.10972
1 4.75292 1.5809 1.49867
1 1.5809 4.75292 5.11238
1 7.83654 1.5809 11.7234
1 11.0086 7.83654 5.11238
1 4.75292 11.0086 11.7234
1 11.0086 4.75292 5.11238
1 4.75292 1.5809 11.7234
1 1.5809 7.83654 5.11238
1 7.83654 11.0086 11.7234
1 10.1088 10.1088 3.30552
1 2.48067 10.1088 9.91657
1 2.48067 2.48067 3.30552
1 10.1088 2.48067 9.91657
1 2.48067 10.1088 3.30552
1 10.1088 10.1088 9.91657
1 10.1088 2.48067 3.30552
1 2.48067 2.48067 9.91657
1 0 1.60471 1.57853
1 10.9848 0 8.18958
1 0 10.9848 1.57853
1 1.60471 0 8.18958
1 0 10.9848 11.6436
1 1.60471 0 5.03252
1 0 1.60471 11.6436
1 10.9848 0 5.03252
96
 Atoms. Timestep: 2000
2 0.169309 7.92209 4.28131
2 4.77129 12.2439 11.2078
2 12.4583 5.41899 4.88207
2 7.67883 0.0397142 11.6584
2 -0.353864 4.47338 8.86447
2 7.91305 0.899373 1.48807
2 -0.0719617 7.5001 7.85049
2 4.9813 13.0944 1.60547
2 11.4223 7.92274 6.19948
2 4.95833 10.3676 -0.0640681
2 1.58979 4.17959 6.25611
2 8.49885 2.89392 12.9151
2 1.59045 8.28613 6.92316
2 7.52559 11.5757 -0.183281
2 11.1441 4.86459 6.88349
2 4.47194 1.11335 13.1658
2 10.2706 6.60262 4.88928
2 6.30687 10.1082 11.8099
2 1.65441 6.43678 4.89193
2 6.20783 1.70926 11.913
2 2.17173 5.7805 8.22965
2 6.07639 2.80429 0.843097
2 10.6544 6.50102 8.45452
2 6.61022 11.3664 2.13196
2 10.4482 8.63852 8.9694
2 3.82888 11.1844 2.72498
2 2.43576 2.81534 9.25651
2 8.95948 3.34266 2.24383
2 1.81461 8.36752 9.7199
2 9.65568 12.0201 2.10289
2 9.85196 3.95008 9.40689
2 3.28276 2.4494 2.49149
2 1.18194 3.28602 4.12671
2 8.78959 2.16159 10.2974
2 10.3383 9.13958 3.71454
2 3.82896 9.69876 10.8143
2 10.5057 4.03558 3.51805
2 3.42562 0.788731 10.8943
2 2.89015 8.6337 4.61995
2 8.87481 10.0876 11.5007
2 0.0906247 11.0135 -0.098359
2 1.95921 12.2341 6.58943
2 12.4924 2.56951 -0.0429089
2 10.6727 12.0223 6.67632
2 0.0749395 0.434203 1.18881
2 -0.0806869 12.2002 7.58704
2 0.0651246 -0.0119814 11.9706
2 12.6094 0.0339961 5.43655
2 10.9942 2.82428 1.83711
2 9.98 11.6355 9.66428
2 1.41373 10.5149 2.60883
2 1.87459 0.16047 9.42354
2 1.34914 1.85087 1.76058
2 2.06171 10.3658 8.50965
2 11.9449 10.6006 1.8079
2 10.555 0.976164 9.49503
2 1.60464 10.1444 11.1353
2 1.9324 0.542452 4.4728
2 10.4918 3.2476 11.2596
2 10.3889 11.4372 3.96162
2 11.6827 10.4254 11.1302
2 10.3731 1.63208 4.50163
2 0.566045 1.78002 10.3706
2 1.48956 10.9698 4.63774
1 11.3567 7.95395 8.02741
1 4.98397 11.1569 1.60009
1 1.58029 4.16816 8.2987
1 7.83467 2.77148 1.02316
1 1.59668 7.28706 8.2847
1 8.03493 12.177 1.5453
1 10.8407 4.77634 8.48417
1 4.5389 1.73261 1.20113
1 1.10183 4.85875 4.46727
1 7.81125 1.79358 11.4089
1 11.1767 7.77632 4.48355
1 4.73681 10.5715 11.7464
1 10.8352 4.99561 4.83564
1 4.96653 0.821821 11.8559
1 1.73196 7.74962 5.39253
1 7.59907 11.1486 11.6727
1 10.6158 10.4967 2.61872
1 2.49006 9.62639 9.90423
1 2.04649 1.86439 3.33918
1 10.2805 2.44535 9.9973
1 2.76155 10.4286 3.78782
1 10.3398 9.87902 10.1836
1 10.036 2.63782 3.33442
1 2.31239 1.42947 9.93547
1 12.6063 2.04616 1.47046
1 11.0273 12.3391 8.52023
1 0.334369 11.6851 1.5296
1 1.64726 11.9491 8.19839
1 0.354308 10.9344 11.7001
1 1.18823 12.3458 5.40975
1 -0.117087 1.53927 12.19
1 10.858 0.109697 5.21471
96
 Atoms. Timestep: 4000
2 11.8756 7.61904 5.86136
2 5.11781 12.8522 11.5567
2 12.7662 5.07383 3.29083
2 7.48567 0.0582027 12.3045
2 -0.0152878 4.05425 8.14345
2 6.89985 12.3304 2.18554
2 1.07772 7.30918 8.51622
2 4.02505 12.2773 1.83547
2 9.22088 7.96897 6.00711
2 3.90871 10.7165 12.7882
2 2.46577 5.18821 7.25934
2 8.35861 1.20066 0.535025
2 1.81713 8.33535 6.4509
2 8.26365 10.9389 0.113211
2 11.2307 4.09258 5.59803
2 5.14583 1.13323 -0.199304
2 10.2787 5.69235 4.52439
2 6.55284 10.9809 11.9156
2 1.24055 6.49827 4.82409
2 7.05088 2.22269 11.8931
2 1.05377 5.425 9.92274
2 5.3471 1.48435 1.87709
2 12.1147 5.9707 7.55027
2 5.77765 10.1447 0.85555
2 11.0011 9.02513 8.84293
2 2.55799 10.1287 1.70485
2 3.02452 3.68604 9.45592
2 7.85145 1.98787 2.948
2 2.36213 9.78338 8.74903
2 8.48091 10.9079 2.38965
2 11.7776 3.27949 9.97378
2 2.78576 2.00815 2.05527
2 1.99528 4.58453 3.45099
2 9.72079 2.0457 11.5941
2 10.0722 8.57833 3.41848
2 3.9666 10.6315 10.4973
2 10.5958 3.39157 3.33296
2 4.68309 2.44116 10.7264
2 1.56594 9.28797 4.48951
2 9.21788 10.5558 10.6806
2 0.0210297 10.7735 0.17249
2 1.90673 0.205936 5.9859
2 0.47159 1.51808 0.347992
2 10.805 0.171301 6.75981
2 12.5535 -0.0480657 2.1019
2 0.426209 0.677296 7.8206
2 0.946436 12.4356 12.2111
2 12.3331 12.3593 4.83329
2 10.4428 1.82288 1.99568
2 11.4668 11.4772 8.71754
2 0.187593 10.4621 2.61307
2 3.259 1.29215 8.74532
2 0.15325 2.825 2.81052
2 2.06524 12.4637 9.13452
2 10.8069 11.5175 3.07818
2 10.8267 0.870584 9.34877
2 1.66772 10.1935 11.2557
2 1.48506 1.66253 4.00437
2 11.7905 1.1676 11.574
2 10.2518 10.8863 4.94875
2 11.8677 10.0651 11.2146
2 9.55561 0.528321 4.40091
2 1.85069 1.77814 10.9809
2 1.95084 11.8857 3.92248
1 12.2318 7.45041 8.58096
1 3.97759 10.6627 0.935739
1 1.56479 4.52795 8.87491
1 7.02768 1.15811 1.71883
1 2.16144 8.1522 7.83548
1 7.24109 10.7951 1.46305
1 11.8634 4.65739 6.98636
1 4.02216 1.13237 1.1157
1 1.17546 6.00034 3.36153
1 8.34666 1.52729 12.4778
1 10.4512 7.36082 5.02166
1 5.03184 11.0275 11.7081
1 11.4157 4.45489 3.91977
1 5.55494 1.76954 11.8401
1 0.660333 8.22939 5.2534
1 8.31033 11.2144 11.9778
1 9.62153 10.2027 3.45055
1 2.43408 11.0145 9.95522
1 1.69739 3.01814 3.37117
1 10.8544 2.02652 10.4719
1 1.69592 10.4921 3.1899
1 10.6953 10.2709 9.79539
1 9.45225 1.8689 3.23964
1 3.10828 2.04662 10.2194
1 12.096 1.72361 1.65045
1 11.8325 12.8927 8.01157
1 11.9372 11.26 1.63126
1 1.97967 0.766597 7.77844
1 0.538453 10.6576 12.288
1 1.14612 0.270401 4.47303
1 0.645269 1.18036 12.1389
1 10.7821 -0.0911048 5.24625
96
 Atoms. Timestep: 6000
2 12.0619 6.90641 4.8294
2 5.92283 12.5808 11.2464
2 12.1558 4.36143 5.54389
2 8.2216 0.429692 12.3203
2 -0.028431 4.82283 9.09128
2 6.67402 0.196464 2.28016
2 3.16536 6.22868 7.57697
2 3.85258 12.5822 1.47058
2 11.268 7.71272 7.12207
2 4.63167 10.4986 13.2765
2 5.02677 8.13596 6.68329
2 7.21234 2.58527 0.493285
2 2.52294 7.75309 5.64309
2 7.69423 11.2627 0.379369
2 10.2585 4.47946 7.29323
2 5.18894 0.940434 13.4784
2 10.1956 6.2013 5.66988
2 7.13022 10.7741 11.613
2 1.43949 5.52115 4.4281
2 6.86263 2.31644 11.9044
2 0.520692 6.83738 8.06829
2 5.42626 2.05076 1.75989
2 11.1673 6.81981 9.47354
2 5.58936 10.922 1.88617
2 12.101 9.77907 9.43036
2 2.80316 9.99051 2.20379
2 3.01303 4.02102 9.01872
2 7.76602 2.15648 3.1533
2 3.48758 9.08599 7.95544
2 8.35431 10.5152 2.49904
2 10.3988 3.95258 9.95961
2 2.56511 1.31589 1.85164
2 1.36531 2.97641 4.00396
2 9.4292 2.17755 11.2754
2 9.876 8.641 4.68648
2 4.56055 10.1929 10.5026
2 10.1314 3.76527 4.40297
2 4.50869 1.81938 10.766
2 0.818365 8.72961 4.11016
2 9.6934 11.3492 11.2097
2 0.107378 10.3306 13.028
2 1.89679 12.6507 6.10637
2 0.0701173 1.94833 13.1621
2 10.8266 12.3591 6.55802
2 11.7597 12.3854 0.655251
2 0.244417 1.30598 7.58079
2 0.82583 12.7182 11.8069
2 12.4325 11.8617 4.8446
2 9.9907 1.22266 13.3663
2 11.8589 11.7333 8.63952
2 12.5668 9.97762 2.23192
2 2.62064 1.68631 8.87764
2 -0.111289 2.25693 1.96666
2 2.32174 12.0188 8.52474
2 10.6492 9.53039 1.84238
2 10.4306 1.14311 8.61263
2 1.83073 10.2972 10.4729
2 1.52138 1.02641 4.1794
2 12.1851 2.16109 10.4241
2 9.42856 11.0771 4.62179
2 11.8456 10.9074 11.2863
2 10.4943 1.26278 4.34991
2 1.88286 2.36642 11.0423
2 1.60382 10.847 4.10627
1 12.0767 8.04276 8.92801
1 4.04549 10.8876 1.31289
1 1.82384 5.46014 8.52418
1 6.90185 1.86721 1.74246
1 3.35908 7.72262 7.27542
1 7.17447 11.2482 1.79123
1 10.9335 5.07606 8.85094
1 4.19537 1.35675 1.19238
1 0.517145 4.18658 4.72259
1 8.72957 2.00834 12.6262
1 10.6062 7.66894 5.73442
1 5.29739 10.8149 11.6942
1 10.292 4.46771 5.8312
1 5.6773 1.26305 11.8571
1 1.08339 7.19613 4.99938
1 8.4168 11.5665 12.0769
1 9.8029 9.76084 3.48585
1 3.06844 10.3384 9.30135
1 1.30226 1.98236 2.84236
1 10.6141 2.31871 10.0533
1 1.26515 9.90736 3.09516
1 10.9857 10.9141 9.93098
1 9.57568 2.52142 3.70668
1 3.29348 2.56745 10.2439
1 11.631 1.31229 0.962562
1 11.6032 0.253607 7.7266
1 11.7895 10.7586 1.03436
1 1.74644 0.761627 7.71092
1 0.678317 11.0907 11.7109
1 1.24872 12.2648 4.62947
1 0.33801 1.51445 11.6833
1 10.5309 12.263 4.85731
96
 Atoms. Timestep: 8000
2 12.9068 7.69518 4.8435
2 4.71219 -0.0073267 11.446
2 11.2914 4.96311 4.87482
2 8.24112 12.063 12.4117
2 0.25868 5.27165 9.09955
2 7.12546 12.3274 2.24444
2 2.93855 6.51134 8.22988
2 3.3008 0.327323 1.28177
2 10.5523 8.24894 6.9711
2 4.54016 10.8552 13.0458
2 5.08144 6.93364 6.64399
2 7.58087 1.37548 0.538852
2 2.1624 7.55721 6.57327
2 7.62001 10.1597 0.128398
2 10.4393 5.54703 7.64165
2 4.75304 2.45371 13.5008
2 10.0623 6.61773 5.67019
2 6.68666 10.562 11.2306
2 1.07774 5.5743 5.0485
2 6.80054 1.82926 11.5056
2 3.54705 5.21197 9.95065
2 5.60248 1.35888 2.00151
2 11.1317 6.651 9.13842
2 4.8922 11.64 1.33243
2 10.1802 9.38031 9.22617
2 2.80167 10.329 1.95015
2 2.44267 3.55611 9.05958
2 8.57077 1.8688 2.97861
2 3.78309 9.0646 8.28862
2 8.04563 9.81359 2.88128
2 10.4129 3.67237 9.72774
2 3.16049 2.65532 1.92996
2 0.822914 3.52555 3.54477
2 9.53669 1.38381 11.3772
2 10.2892 8.5564 3.65021
2 4.15015 11.3062 10.2458
2 9.43859 3.58428 5.55461
2 4.76554 2.7175 10.4702
2 1.74458 8.45881 4.15464
2 9.97611 10.1711 11.2043
2 -0.232416 11.255 13.3288
2 2.53275 0.586416 5.84381
2 12.3264 1.62498 13.1672
2 10.6312 0.000974824 6.68716
2 12.05 0.29845 1.73142
2 0.207466 -0.466354 8.00959
2 1.27232 12.0547 11.9208
2 12.8077 0.260553 4.67709
2 9.86253 1.21694 0.188469
2 10.7853 11.8153 9.0227
2 0.520561 10.714 2.54518
2 2.54757 1.1818 8.45006
2 12.334 2.49844 1.89722
2 2.75851 11.4688 8.18171
2 11.0798 10.6972 2.47744
2 10.5213 1.06299 8.7963
2 2.07606 10.371 10.6058
2 1.17695 1.3568 3.03142
2 12.3937 1.66042 10.5885
2 10.3174 11.4722 4.5255
2 12.2734 10.0468 11.1486
2 10.3709 1.72489 4.68625
2 2.03813 1.0808 10.4928
2 2.01701 11.4975 4.08346
1 10.2754 7.85743 8.49411
1 3.34282 11.4482 0.832286
1 1.91515 5.28094 8.9512
1 7.2508 1.03978 1.98272
1 3.67596 7.79941 7.31445
1 6.77471 10.7469 1.70425
1 11.1455 4.93029 9.17351
1 4.26572 1.71461 1.4693
1 -0.0557681 4.86393 4.04736
1 8.5326 1.17418 12.7077
1 10.8102 7.96694 5.07677
1 5.27122 11.237 11.5563
1 10.2777 5.05205 6.05562
1 5.26872 1.68654 11.7805
1 1.51596 7.16273 5.14425
1 8.49837 10.5039 12.0268
1 9.80043 10.0363 3.22002
1 3.12215 10.2414 9.30304
1 1.31763 2.63878 2.03595
1 10.6309 1.96931 10.215
1 1.69091 9.93016 3.42253
1 11.214 10.5222 10.2104
1 9.36471 2.68586 4.31013
1 3.10032 2.35001 9.85665
1 11.2938 1.58215 0.933717
1 11.5133 -0.0131366 8.06365
1 12.2694 11.2917 1.35073
1 1.80467 -0.0298031 7.26979
1 0.859827 10.5781 11.5929
1 1.64981 0.325137 4.13556
1 0.753264 0.800326 11.9172
1 10.9378 0.232748 4.7971
96
 Atoms. Timestep: 10000
2 11.9232 8.00334 5.63042
2 4.83427 0.302918 11.4764
2 11.5888 4.14247 5.21614
2 8.90427 11.999 12.072
2 12.0911 5.10314 8.5758
2 8.30266 12.575 2.6849
2 2.5637 6.16736 8.11445
2 4.19612 0.748392 1.25054
2 10.2522 7.73763 6.8777
2 4.29281 11.2303 13.3254
2 4.21839 7.59276 6.54833
2 8.12391 3.08247 2.62572
2 1.78424 8.00124 6.46712
2 8.23746 11.3771 0.76427
2 9.8164 4.95698 6.31425
2 5.22429 2.45989 13.2013
2 9.79561 6.16363 4.6552
2 6.5907 11.142 12.0671
2 0.0725698 6.4255 4.49212
2 6.93744 1.63913 11.8369
2 1.88851 4.13637 9.41159
2 6.34724 2.04486 2.13076
2 10.2381 6.31063 8.3685
2 5.54527 11.2434 2.00322
2 9.66426 9.70438 8.63742
2 3.16526 10.7932 2.67111
2 0.945537 4.83981 6.89336
2 9.82389 1.65757 3.27652
2 3.10443 8.51127 9.00781
2 8.3137 10.0178 2.70807
2 10.1506 3.73002 9.51451
2 3.71027 2.52807 2.09324
2 1.28674 3.51825 3.93645
2 9.40562 1.20646 11.2043
2 9.89244 8.96123 4.41174
2 4.21035 10.5512 10.6941
2 8.82538 3.67614 3.88833
2 4.27541 2.50398 10.7535
2 1.55731 8.94511 3.89204
2 9.04262 10.1227 11.311
2 0.246922 10.6578 12.6938
2 2.92886 0.24765 7.21023
2 11.9216 1.33737 12.64
2 11.6137 -0.0156788 6.37207
2 12.2014 -0.0577559 0.960285
2 0.388921 12.0371 8.77912
2 1.19492 12.4366 11.634
2 0.0828186 10.8466 4.21551
2 9.44483 1.49673 0.400483
2 10.6828 11.5753 9.04076
2 0.465342 11.1397 1.98521
2 2.2702 0.951314 9.61879
2 0.559687 1.72261 2.77671
2 2.95391 11.3215 8.52834
2 11.1378 10.2129 1.61318
2 8.83014 2.79529 8.47875
2 1.88903 10.1193 10.5822
2 2.69545 1.20798 4.53269
2 10.7879 1.06447 8.54391
2 10.3537 11.7277 4.03291
2 11.5852 10.7964 10.8698
2 12.2324 0.686892 4.35522
2 1.23327 2.39806 11.3712
2 2.11867 11.5497 4.3962
1 9.86764 8.18822 8.59041
1 3.83044 11.824 1.35679
1 1.29023 5.23735 8.29405
1 8.39659 1.56637 2.18963
1 3.25973 7.5541 7.73247
1 7.43887 11.3451 2.10146
1 10.666 4.77646 7.98215
1 5.12354 1.93254 1.18299
1 0.593454 4.74303 4.81494
1 8.37564 1.07005 12.523
1 10.2397 7.57787 5.212
1 5.02111 11.526 11.7489
1 10.0246 4.65025 4.67472
1 5.2115 1.72348 11.8457
1 0.758193 7.76363 5.12508
1 8.2189 10.717 12.6647
1 9.98027 9.96612 3.14773
1 3.17439 10.2004 9.628
1 2.02862 2.15103 2.88083
1 9.90875 2.09047 9.81623
1 1.55443 10.5183 3.32891
1 10.0943 10.5706 10.16
1 11.5438 1.64014 3.21166
1 2.77354 2.49868 10.2839
1 11.1127 1.32962 0.594852
1 11.7919 12.3876 8.09194
1 12.3296 11.0581 0.61375
1 2.00603 -0.0547218 8.48822
1 0.492312 11.0213 11.2683
1 3.01751 12.6645 5.29324
1 0.534718 1.15581 11.8976
1 11.8549 12.1791 4.79153
96
 Atoms. Timestep: 12000
2 0.159098 8.01121 5.83636
2 5.23261 0.642337 11.3824
2 12.0356 4.72748 5.77237
2 7.82409 0.4517 11.5865
2 0.117316 5.27437 9.34551
2 7.51607 0.151142 2.33456
2 2.30416 6.19332 8.65037
2 4.87997 12.536 0.962654
2 11.0933 8.57189 7.45507
2 5.19488 10.6911 13.03
2 0.974642 8.59061 8.24355
2 7.54422 3.37616 2.86713
2 2.29694 8.1494 6.31181
2 9.58852 12.4161 12.9159
2 9.16787 3.7115 5.78034
2 4.37402 1.43187 13.0671
2 10.3819 6.43262 5.86496
2 7.07508 10.9446 11.0342
2 0.987981 6.04922 4.60937
2 6.61217 2.38615 12.1025
2 1.99881 3.74949 9.69669
2 5.32725 1.68858 2.534
2 11.2931 7.07312 9.66953
2 5.94692 10.8593 1.65626
2 11.2389 9.68695 9.39742
2 2.97093 10.2131 1.65147
2 1.92475 4.225 6.77961
2 10.7364 2.09369 1.18732
2 3.30659 8.29522 9.43644
2 8.69073 10.0619 2.95757
2 10.5233 4.10676 8.6142
2 2.58131 1.9702 2.44978
2 1.39755 3.2404 4.53101
2 8.92009 2.66894 10.3286
2 11.042 9.15726 4.6479
2 5.12077 10.3858 10.3545
2 10.6207 3.9272 3.51354
2 3.49449 2.4175 11.2507
2 1.06552 8.43655 3.53452
2 10.1757 10.804 10.8326
2 0.45448 10.2167 0.0706559
2 2.1016 12.0866 6.53588
2 11.9444 1.14164 11.4795
2 9.81808 12.4488 6.41296
2 11.2833 12.5238 0.623232
2 0.848416 -0.0815664 9.20401
2 0.92393 11.9658 12.195
2 12.0688 12.2165 5.51441
2 9.69789 1.58435 11.8029
2 10.8199 11.8095 8.91304
2 0.497645 10.8893 2.56625
2 2.71263 1.26074 8.66357
2 12.4027 2.03917 3.24984
2 2.93211 11.0475 8.84722
2 11.2476 10.0326 2.29473
2 8.56705 3.19628 7.06291
2 2.79356 10.058 11.4859
2 1.46863 0.592813 4.26356
2 10.4034 1.54032 8.36058
2 10.1208 10.9376 4.66379
2 0.155757 10.2656 10.7881
2 10.698 1.50538 4.24257
2 1.47624 1.21539 10.6807
2 1.34856 10.5859 4.40443
1 12.1265 8.64553 8.66712
1 4.50253 10.6542 1.21011
1 1.78075 4.5562 8.46273
1 6.99404 1.66132 3.09191
1 2.24862 7.68676 7.94108
1 7.50382 11.4365 2.26333
1 11.1552 5.48573 9.48013
1 4.10087 1.39987 1.38804
1 1.15508 4.63202 5.41148
1 8.22757 2.0247 11.5123
1 11.113 8.0823 5.8978
1 5.68382 11.5271 11.5183
1 10.4014 4.83337 5.19695
1 4.88276 2.3219 11.7198
1 1.69362 7.52997 4.8718
1 8.83438 11.4709 11.5242
1 10.2811 9.8344 3.37913
1 3.35105 9.74615 9.97716
1 1.27858 1.96726 3.70835
1 9.21544 2.62934 8.79177
1 1.78644 9.97184 2.89647
1 11.5016 11.0428 10.1984
1 10.791 2.34677 2.81659
1 2.46217 2.33143 10.0254
1 10.9143 1.00046 12.9561
1 9.83862 0.0177899 7.99472
1 12.0432 10.8866 1.32084
1 2.18035 12.3972 8.20976
1 1.296 10.31 12.1777
1 1.03435 11.9784 5.18155
1 0.283866 0.24766 10.7956
1 10.5776 0.0127607 4.98465
96
 Atoms. Timestep: 14000
2 12.4344 8.29919 5.53842
2 5.18742 -0.0806062 11.7686
2 12.4922 3.93429 5.299
2 7.27541 12.2397 11.2744
2 0.7418 5.05678 8.71166
2 7.27502 0.241583 3.94742
2 2.18352 7.00419 8.48561
2 5.03153 -0.0146235 1.75078
2 10.3073 7.00275 7.22904
2 4.19648 10.5864 0.103164
2 12.6592 8.27895 8.38181
2 4.84491 1.34071 4.67902
2 1.95861 8.29344 6.36303
2 9.38047 10.5591 11.1641
2 10.1245 3.68464 6.13071
2 4.43031 1.7398 0.14918
2 10.9476 5.84365 4.64194
2 6.16411 10.5161 11.7056
2 1.30314 6.49187 4.595
2 6.61761 1.47747 11.7495
2 3.08885 4.26918 8.85006
2 6.17172 2.21273 2.84916
2 10.9803 5.51264 9.04562
2 6.00892 11.0461 1.99571
2 10.6207 8.52562 9.97584
2 3.27669 10.8016 2.6133
2 1.92701 4.81763 6.57777
2 10.9537 1.624 1.39724
2 2.57008 9.71536 8.77339
2 8.08268 10.5416 3.88312
2 11.0851 2.61086 9.13731
2 3.68563 2.63942 2.35695
2 1.77678 3.87142 3.90979
2 9.08048 1.18969 10.2239
2 10.2949 8.43034 4.4766
2 3.38716 10.8814 10.6805
2 11.574 3.44283 3.10528
2 4.2 2.67443 11.0091
2 2.09579 9.64441 4.81198
2 7.46142 9.32531 9.92101
2 -0.116076 10.7114 13.2505
2 2.48949 0.877379 6.33373
2 12.0212 1.55869 12.8677
2 11.0036 12.4635 6.39618
2 10.7341 12.2055 0.415921
2 0.779527 12.4508 7.56875
2 0.69708 0.249676 11.9308
2 12.4339 10.732 4.94612
2 9.11644 1.12609 12.7276
2 11.1442 10.8323 8.62433
2 0.426402 11.2828 2.28856
2 2.5163 1.84708 8.71454
2 1.10781 2.00175 2.38541
2 3.08098 12.1381 8.37371
2 10.6773 10.0743 1.98944
2 9.00584 3.12025 9.06144
2 1.19974 11.2606 10.3919
2 2.58189 1.89291 4.3572
2 10.9177 0.584507 8.12947
2 10.4335 10.5409 5.03394
2 11.5275 11.4666 11.0271
2 11.5734 0.624243 3.69854
2 1.47299 2.83137 10.958
2 2.87425 12.0116 4.33495
1 11.1433 7.5388 8.68052
1 4.37048 11.2616 1.62691
1 2.16592 5.47304 8.06255
1 6.74325 1.86797 4.30649
1 1.4949 8.37616 7.95689
1 7.1159 11.5699 3.06173
1 11.8354 4.17567 8.92289
1 5.09623 1.74742 1.67541
1 1.18348 4.88015 5.2299
1 8.08762 0.869261 11.5246
1 10.7919 7.33547 5.53571
1 4.67764 11.1821 11.9764
1 10.8033 4.17878 4.63527
1 4.57738 1.48738 11.8847
1 1.35565 8.1103 4.92996
1 7.53369 10.6995 10.8584
1 9.74439 9.72031 3.41779
1 2.53915 11.0267 9.41889
1 2.21305 2.68564 3.06798
1 9.75881 1.59417 8.98122
1 1.69911 10.6728 3.42045
1 10.6523 10.1669 10.3723
1 12.1769 1.77434 2.60002
1 3.02878 2.95038 9.9475
1 10.4475 0.934038 0.208618
1 11.9538 12.3033 7.82471
1 11.7936 10.9499 1.19295
1 2.22328 0.545481 7.814
1 0.287916 11.6293 11.8671
1 3.32384 0.493274 5.06485
1 0.242751 2.10571 11.4479
1 11.5755 12.0978 4.90126
96
 Atoms. Timestep: 16000
2 12.6605 7.63955 5.36651
2 5.24706 -0.0873228 12.1826
2 0.0691104 4.41566 6.03868
2 7.44263 0.0864818 10.99
2 0.00694543 4.79431 8.49921
2 6.9946 12.0863 3.84822
2 2.416 6.48477 8.46321
2 3.92319 12.3956 1.25951
2 10.664 8.07009 6.85075
2 4.3041 10.6365 0.0175374
2 0.32534 8.4449 8.82056
2 5.03392 0.169794 4.17048
2 2.35313 8.3296 6.80053
2 8.68489 10.2414 10.1215
2 10.4658 3.93843 6.52618
2 5.23769 1.81834 0.0847761
2 10.3665 6.02507 5.06685
2 6.09776 10.5866 11.7117
2 1.54941 6.22604 5.1552
2 6.3878 2.17982 11.4653
2 2.40992 4.01728 9.49433
2 5.9133 1.75087 2.61244
2 11.3795 6.32028 7.61891
2 5.91899 10.6139 2.14001
2 10.4191 8.38337 9.2443
2 3.00944 10.4376 2.79623
2 2.07091 4.01552 6.97604
2 11.4209 2.2569 1.19272
2 2.75192 9.48859 9.03387
2 8.68112 9.99286 3.69468
2 10.8739 3.87848 8.8195
2 3.33303 2.32454 1.85021
2 2.06199 3.92897 3.85243
2 8.8944 2.78157 10.5233
2 10.7005 8.30303 3.91095
2 3.60702 11.2476 11.1573
2 11.0545 3.82263 3.51932
2 3.54409 2.26414 11.2784
2 1.91166 9.48297 4.30758
2 9.05017 11.557 12.5168
2 12.1338 10.4452 13.0192
2 3.13962 0.392422 6.99466
2 11.609 1.46645 12.5621
2 11.3733 -0.0793208 6.51873
2 10.5764 12.4694 0.487539
2 0.353933 0.706798 7.82837
2 12.5278 11.9237 11.7277
2 0.427331 11.7136 4.68434
2 9.14858 1.2406 12.801
2 11.2529 11.0382 8.79803
2 0.443013 11.0192 2.27565
2 2.84683 2.00679 8.38819
2 0.527692 2.91073 2.75801
2 1.14986 1.58182 5.81198
2 10.724 10.43 2.10414
2 10.0957 2.65287 7.31286
2 1.23695 9.80964 10.6528
2 2.36719 1.21804 4.43027
2 11.4102 1.3476 9.20198
2 11.3325 10.9734 4.42241
2 11.5933 9.72564 11.1706
2 11.8225 1.19943 3.88387
2 1.09584 2.21196 10.8501
2 2.56302 11.8131 4.62222
1 11.3919 7.57584 8.4603
1 4.46042 10.68 1.58731
1 1.68311 5.04578 8.54035
1 6.39155 1.06342 4.05149
1 2.01257 8.19743 8.47061
1 7.37176 10.9949 2.47702
1 11.6489 4.80859 7.19463
1 4.42514 1.30052 1.67942
1 1.66149 4.52825 5.29049
1 7.95955 1.61192 11.4699
1 11.0336 7.50329 5.39096
1 4.72577 11.1192 12.144
1 10.1465 4.23067 4.88107
1 5.07258 1.48799 12.0575
1 1.56885 8.10627 5.41745
1 7.67095 11.0269 11.5238
1 10.2948 9.85793 3.77808
1 2.64249 10.616 10.1551
1 2.13629 2.37905 2.98351
1 9.94596 2.52788 9.22063
1 1.67986 11.0766 3.49922
1 10.4196 9.90001 9.80509
1 11.7448 2.52929 3.01701
1 2.56019 2.47331 10.0414
1 10.5299 1.29382 0.25566
1 11.8339 12.6575 8.32059
1 11.8808 11.0337 1.19986
1 1.80195 1.24887 7.23318
1 0.108585 10.342 11.5627
1 3.87868 0.259368 5.24694
1 0.151715 0.764999 11.4136
1 11.6653 12.3329 5.04508
96
 Atoms. Timestep: 18000
2 0.213925 6.47599 4.31464
2 4.52995 12.7248 12.0334
2 -0.272781 4.27122 6.77896
2 8.95137 0.283979 11.8084
2 0.560681 4.43524 9.13122
2 7.16512 0.025125 3.39562
2 1.94313 6.62983 8.55054
2 4.19624 0.271039 1.45011
2 11.2988 7.41751 6.27085
2 5.30718 10.5105 0.168039
2 12.2169 8.36978 7.79324
2 4.93461 0.387885 4.40024
2 1.40339 7.55915 6.65291
2 9.29676 10.4276 10.7546
2 7.52308 3.28967 6.64845
2 4.69489 2.54715 0.293593
2 9.47353 5.25403 5.55714
2 6.90849 11.539 11.3938
2 1.78412 5.94682 5.51488
2 6.73198 2.11752 11.7651
2 2.90516 3.97643 9.59678
2 5.80935 2.02984 2.73362
2 11.239 6.41293 8.35242
2 6.40405 11.4528 1.59765
2 10.4255 9.43239 8.37446
2 3.48577 10.4246 2.76953
2 2.36241 4.24665 7.52297
2 10.7147 2.19987 2.36189
2 1.83963 9.79787 8.60101
2 8.79209 10.0374 2.88838
2 10.1297 3.8767 8.87866
2 3.11284 3.19234 1.90623
2 1.84161 4.22035 4.20599
2 9.01548 2.25475 10.2423
2 10.6597 7.81658 4.23834
2 4.45901 10.7181 10.1936
2 10.2056 2.76681 5.01389
2 4.72446 2.51235 10.5194
2 1.65157 9.30252 4.4638
2 8.12952 10.6003 0.304666
2 12.1905 10.6192 12.7855
2 2.51144 0.494158 5.93644
2 12.2475 1.96883 0.0528568
2 12.1084 11.8596 6.15109
2 11.1688 12.2072 1.27151
2 0.610842 1.02785 7.80917
2 0.654251 0.134365 11.4145
2 0.445151 10.9216 4.48491
2 9.58598 1.77965 13.0471
2 11.5702 11.7663 8.94757
2 0.496445 10.2072 2.26128
2 3.26154 2.20121 8.27704
2 0.712684 2.07468 3.32554
2 1.96686 2.63091 6.21101
2 10.9961 9.38002 2.02579
2 7.98634 2.88354 8.08985
2 1.87009 10.1079 10.9578
2 3.08794 2.21935 3.79585
2 9.99642 1.133 7.5397
2 10.4583 10.3449 4.34871
2 11.6354 10.2688 10.3421
2 11.0746 0.967487 4.97363
2 1.891 2.45937 11.1619
2 2.33314 12.0422 3.51562
1 10.6673 7.83046 7.69113
1 4.75845 11.2196 1.43097
1 2.20227 4.98732 8.93326
1 6.36005 1.27408 4.02368
1 1.55223 8.3059 8.02596
1 7.92176 11.1401 2.31661
1 11.3747 4.75901 8.23763
1 4.42713 2.09944 1.74591
1 1.46352 4.36752 5.80128
1 8.43605 1.76556 11.8004
1 11.1159 6.25993 5.03072
1 5.34076 11.1439 11.7306
1 8.95831 3.8805 5.86902
1 5.2272 1.81008 11.9195
1 1.4681 7.60064 5.00217
1 8.38534 11.0822 12.0123
1 10.0471 9.02346 3.25938
1 2.98211 10.0532 9.85452
1 1.83026 3.01976 2.96221
1 9.33833 2.47352 8.86523
1 1.63696 10.5963 3.32479
1 10.4218 10.7056 9.45918
1 11.464 2.10036 3.84131
1 3.10113 2.42656 9.84614
1 10.8413 1.22761 0.881821
1 11.6367 0.195667 7.55858
1 11.7458 10.7518 1.30202
1 2.0696 1.47632 7.26821
1 0.436446 10.8724 11.2348
1 3.32808 0.68163 4.6127
1 0.997739 1.59074 12.0142
1 11.4787 11.4012 4.7565
96
 Atoms. Timestep: 20000
2 12.1696 8.03306 5.26447
2 4.81554 12.83 11.4923
2 12.196 4.11191 6.84642
2 9.04146 12.7589 11.7165
2 0.516396 5.29877 9.23775
2 7.12398 12.3165 2.48683
2 2.40467 6.86057 9.3654
2 2.03938 0.657224 0.311521
2 10.7912 8.05756 6.76235
2 3.96876 11.2942 13.301
2 0.249527 8.03858 8.5463
2 4.69236 -0.115379 4.03277
2 1.49237 7.92037 6.82776
2 9.50224 10.5652 10.0967
2 9.1229 4.24998 6.18067
2 4.81075 1.98309 0.314566
2 10.8184 6.28124 4.88069
2 6.66371 11.4172 11.3787
2 0.91022 5.76973 5.33787
2 7.09045 1.90755 12.1864
2 2.40724 4.04494 9.90119
2 4.35066 -0.0580838 1.57748
2 11.3722 6.10195 8.71787
2 5.86598 10.9069 1.61516
2 11.4885 8.72133 9.67103
2 3.10464 10.9973 2.86186
2 1.74385 4.61918 7.2412
2 10.8229 1.72483 1.50149
2 2.72646 9.37763 8.62262
2 8.65855 10.7728 1.72301
2 11.3623 3.02436 8.76082
2 2.37629 2.17111 2.10138
2 1.34085 2.84081 5.03455
2 9.19809 2.18352 10.4133
2 9.66086 8.6356 3.6939
2 4.73463 10.3371 10.5209
2 9.87753 3.85382 3.53614
2 4.35858 1.74705 10.8448
2 1.69264 9.21381 4.18889
2 7.99803 11.3773 13.1566
2 0.666889 10.5786 0.103077
2 2.69431 0.387211 6.67131
2 12.5004 1.51047 12.7785
2 11.4469 12.4072 6.3717
2 12.4051 12.4848 0.761719
2 0.37338 0.600217 8.16212
2 0.670308 12.4993 11.4435
2 0.510682 12.104 3.87169
2 9.8569 1.39285 13.1475
2 12.1328 11.23 9.10002
2 0.901422 10.2589 2.59574
2 2.24352 1.74634 9.03869
2 12.6366 2.74934 3.40697
2 0.811409 2.71187 7.00365
2 11.519 9.94519 2.10241
2 9.17562 3.08747 7.30601
2 2.10513 10.1671 11.1906
2 2.20227 1.04232 4.32838
2 10.6086 0.696765 8.21169
2 10.5573 11.2888 3.63279
2 12.1781 10.8227 11.3874
2 10.856 0.936778 4.03033
2 1.86313 2.1267 11.6512
2 2.77123 11.6183 4.97664
1 11.5389 7.73957 8.36552
1 4.32904 11.2221 1.41546
1 1.88044 5.35496 8.90697
1 5.63706 0.313701 2.90763
1 1.97307 8.07945 8.1752
1 7.33176 11.5517 1.16859
1 11.8134 4.50083 8.53955
1 3.21961 1.25821 1.26886
1 0.752421 3.8942 5.98296
1 8.48556 1.41591 11.6274
1 10.5793 7.78205 4.80665
1 5.2433 11.2061 11.7159
1 10.0016 4.73771 4.89735
1 5.33521 1.50284 12.2487
1 1.07999 7.75129 5.34544
1 8.37083 11.1949 11.2612
1 9.92614 10.0136 2.60966
1 3.35772 10.4065 9.88453
1 1.55273 2.32398 3.56998
1 9.99676 2.16688 8.83789
1 1.67403 10.8741 3.62001
1 11.1707 10.3251 10.2653
1 10.7232 2.36298 3.04446
1 3.05943 2.50599 10.4484
1 11.3584 0.854226 0.247461
1 11.8111 12.5658 7.89855
1 -0.263172 10.7391 1.52697
1 1.66442 1.47202 7.58022
1 0.751088 10.7411 11.9136
1 3.52692 0.262825 5.18678
1 1.073 0.936155 12.5098
1 11.6736 12.523 4.39864
96
 Atoms. Timestep: 22000
2 12.0941 6.2931 5.45104
2 5.20086 -0.162326 11.9995
2 12.9608 3.52784 6.28729
2 8.52678 0.678983 11.0498
2 0.832506 4.79629 7.74303
2 6.87669 12.158 2.52796
2 2.44693 6.20119 8.93708
2 2.88881 2.10693 0.493324
2 11.071 8.01017 6.42477
2 4.3333 10.3893 0.638883
2 0.916402 7.78633 7.79304
2 4.46436 0.471788 4.55564
2 2.62268 7.46524 6.25388
2 9.77508 10.3298 11.0465
2 7.7873 5.12654 2.17643
2 5.02381 2.97253 0.245569
2 9.40655 6.00512 4.24576
2 6.84277 10.4672 12.2455
2 1.35273 5.3656 4.41723
2 6.86164 1.69058 12.0051
2 2.34763 3.84183 10.0342
2 4.65454 1.46358 1.9842
2 11.4868 6.12087 7.45519
2 5.05281 11.0632 2.97457
2 11.2445 8.36595 9.41009
2 2.88062 10.1726 3.58829
2 3.7709 5.23927 7.61623
2 10.9522 1.74048 2.43626
2 2.72966 8.9043 9.02871
2 8.92592 10.2032 2.32682
2 10.7451 4.06839 8.05343
2 3.09736 4.08618 2.1781
2 0.688792 3.0824 1.33229
2 9.06232 3.01775 10.7777
2 10.141 8.70339 4.64205
2 4.62972 9.97141 11.2606
2 10.3964 3.75557 2.99558
2 4.02391 1.94416 11.0387
2 1.3217 8.70851 4.85389
2 8.2469 11.7083 -0.103355
2 0.0906439 10.0479 12.7797
2 2.27646 0.388917 6.32419
2 0.153536 1.1927 13.356
2 10.9116 12.3514 6.98341
2 11.6229 12.0252 0.416871
2 2.5327 1.50184 8.81996
2 1.82953 11.539 12.9232
2 12.3605 11.4209 3.88698
2 9.5625 1.86873 0.144922
2 10.6283 11.6986 9.18319
2 1.00231 10.4435 2.34322
2 1.89569 2.94662 7.50206
2 0.429405 3.4063 3.64072
2 12.5096 1.45248 8.0812
2 11.6535 9.63685 2.2818
2 7.90544 3.26933 8.27554
2 2.23788 10.4724 10.6932
2 2.35998 2.09872 4.54011
2 9.61504 1.57536 9.22986
2 10.6387 10.8734 4.94096
2 -0.217213 10.1914 10.6833
2 11.3466 1.39223 4.83356
2 1.78562 1.51388 11.4353
2 1.62813 11.85 4.59327
1 11.8518 7.60421 7.73606
1 3.9193 9.94347 2.13358
1 2.40816 4.52948 8.55818
1 5.46163 0.352812 3.3333
1 2.67318 7.627 8.02829
1 8.10862 11.3235 1.50628
1 11.7975 4.56158 6.73138
1 3.97731 2.88934 1.64554
1 1.38521 3.37118 5.00674
1 8.65243 2.05808 11.7899
1 10.6263 7.09788 5.1755
1 5.35933 10.737 12.5213
1 9.12501 4.8275 3.39435
1 5.28686 1.92928 12.0275
1 1.30039 7.10406 5.25649
1 8.35858 11.2455 11.377
1 10.3198 9.9706 3.46031
1 3.31845 9.15464 10.7401
1 1.48642 4.21336 2.10351
1 9.38358 3.46144 9.21558
1 1.07354 10.3836 4.04977
1 10.9575 9.91914 10.0954
1 11.3683 2.78052 3.65762
1 2.65286 2.18827 10.3947
1 11.2115 1.03893 0.948308
1 10.8963 0.642989 8.33936
1 12.5479 10.559 1.22457
1 1.53405 1.26831 7.56484
1 0.993614 10.9046 11.4699
1 2.85901 0.524212 4.70679