96
 Atoms. Timestep: 0
2 0 7.95642 4.74695
2 4.63304 0 11.358
2 0 4.63304 4.74695
2 7.95642 0 11.358
2 0 4.63304 8.47514
2 7.95642 0 1.8641
2 0 7.95642 8.47514
2 4.63304 0 1.8641
2 10.7421 8.43088 6.61105
2 4.15858 10.7421 0
2 1.84736 4.15858 6.61105
2 8.43088 1.84736 0
2 1.84736 8.43088 6.61105
2 8.43088 10.7421 0
2 10.7421 4.15858 6.61105
2 4.15858 1.84736 0
2 10.5201 6.29473 5.04003
2 6.29473 10.5201 11.6511
2 2.06934 6.29473 5.04003
2 6.29473 2.06934 11.6511
2 2.06934 6.29473 8.18207
2 6.29473 2.06934 1.57102
2 10.5201 6.29473 8.18207
2 6.29473 10.5201 1.57102
2 10.1594 8.65935 9.20274
2 3.93011 10.1594 2.59169
2 2.43004 3.93011 9.20274
2 8.65935 2.43004 2.59169
2 2.43004 8.65935 9.20274
2 8.65935 10.1594 2.59169
2 10.1594 3.93011 9.20274
2 3.93011 2.43004 2.59169
2 2.43004 3.93011 4.01936
2 8.65935 2.43004 10.6304
2 10.1594 8.65935 4.01936
2 3.93011 10.1594 10.6304
2 10.1594 3.93011 4.01936
2 3.93011 2.43004 10.6304
2 2.43004 8.65935 4.01936
2 8.65935 10.1594 10.6304
2 0 10.703 0
2 1.88643 0 6.61105
2 0 1.88643 0
2 10.703 0 6.61105
2 0 0 1.872
2 0 0 8.48305
2 0 0 11.3501
2 0 0 4.73905
2 11.2706 2.31295 2.18973
2 10.2765 11.2706 8.80078
2 1.31887 10.2765 2.18973
2 2.31295 1.31887 8.80078
2 1.31887 2.31295 2.18973
2 2.31295 11.2706 8.80078
2 11.2706 10.2765 2.18973
2 10.2765 1.31887 8.80078
2 1.31887 10.2765 11.0324
2 2.31295 1.31887 4.42131
2 11.2706 2.31295 11.0324
2 10.2765 11.2706 4.42131
2 11.2706 10.2765 11.0324
2 10.2765 1.31887 4.42131
2 1.31887 2.31295 11.0324
2 2.31295 11.2706 4.42131
1 11.0086 7.83654 8.10972
1 4.75292 11.0086 1.49867
1 1.5809 4.75292 8.10972
1 7.83654 1.5809 1.49867
1 1.5809 7.83654 8.10972
1 7.83654 11.0086 1.49867
1 11.0086 4.75292 8.10972
1 4.75292 1.5809 1.49867
1 1.5809 4.75292 5.11238
1 7.83654 1.5809 11.7234
1 11.0086 7.83654 5.11238
1 4.75292 11.0086 11.7234
1 11.0086 4.75292 5.11238
1 4.75292 1.5809 11.7234
1 1.5809 7.83654 5.11238
1 7.83654 11.0086 11.7234
1 10.1088 10.1088 3.30552
1 2.48067 10.1088 9.91657
1 2.48067 2.48067 3.30552
1 10.1088 2.48067 9.91657
1 2.48067 10.1088 3.30552
1 10.1088 10.1088 9.91657
1 10.1088 2.48067 3.30552
1 2.48067 2.48067 9.91657
1 0 1.60471 1.57853
1 10.9848 0 8.18958
1 0 10.9848 1.57853
1 1.60471 0 8.18958
1 0 10.9848 11.6436
1 1.60471 0 5.03252
1 0 1.60471 11.6436
1 10.9848 0 5.03252
96
 Atoms. Timestep: 2000
2 12.5687 7.3168 4.30459
2 4.78213 0.081631 11.7312
2 12.5962 5.33238 4.98854
2 7.7178 -0.175267 11.129
2 12.3324 5.11703 8.19517
2 8.05906 0.307517 2.30014
2 12.7658 8.57896 7.78701
2 4.42216 12.3048 1.87236
2 10.7527 8.23309 6.27767
2 4.91652 11.077 0.215975
2 1.50254 4.48927 7.26317
2 7.50688 2.49217 0.654336
2 1.35382 8.29817 6.29819
2 8.29972 11.1421 0.0924545
2 10.5334 4.49748 5.98975
2 4.01137 1.17052 0.158985
2 10.2723 6.66389 4.35055
2 6.80921 10.7833 12.1725
2 1.45928 5.91347 4.29726
2 6.36796 1.9549 11.8218
2 1.10764 6.74338 8.76511
2 6.08741 1.30055 1.76729
2 10.6666 6.26876 7.3503
2 6.57517 10.7522 1.66985
2 10.2649 8.96716 8.63659
2 3.63179 9.89886 2.30114
2 1.60616 3.76712 9.60323
2 8.86093 2.56109 3.11272
2 2.38663 8.52881 9.3126
2 8.77536 10.9989 2.57906
2 9.78433 3.52576 8.21965
2 3.68476 1.61694 2.90433
2 1.50834 3.06574 4.06011
2 9.184 1.48354 10.1463
2 10.7584 9.62877 4.03591
2 4.61456 10.5991 11.1612
2 10.2931 3.91315 4.02387
2 3.91167 2.03435 10.8267
2 2.43819 8.51389 3.98268
2 9.31651 10.3369 11.2944
2 12.3996 11.2153 13.0606
2 1.69099 12.2157 7.07512
2 12.7235 2.50852 12.8775
2 11.0827 11.9723 6.60637
2 -0.12042 0.180711 0.806322
2 0.00747447 12.4407 8.9434
2 0.467364 -0.0205302 11.9518
2 12.7016 12.5388 5.36143
2 11.099 2.25067 1.66445
2 11.131 10.7553 8.55979
2 0.955544 10.3896 1.87025
2 2.3513 0.949194 9.50595
2 1.23041 2.59944 1.80505
2 2.55399 11.3694 9.60852
2 11.2852 11.3935 1.86199
2 11.1892 0.563017 8.98783
2 1.39477 10.2431 10.7168
2 1.92049 0.280404 4.09475
2 11.6325 2.20621 10.8328
2 10.254 11.893 4.01534
2 11.2835 10.8396 10.8181
2 10.8436 0.943587 4.32345
2 1.25867 2.06005 11.4731
2 2.19871 10.4121 4.8183
1 11.1909 8.05071 7.75334
1 4.80805 10.7109 1.84451
1 0.843913 5.01284 8.68115
1 7.54115 1.73955 2.3557
1 1.15071 8.12199 7.95679
1 8.13008 12.0301 1.62073
1 10.8106 4.6881 7.54397
1 4.44985 0.859687 1.819
1 1.1866 4.43138 5.1169
1 7.81417 1.37075 11.0846
1 10.8712 8.16299 4.73331
1 5.27448 11.6275 12.3509
1 10.9327 5.27219 4.83409
1 4.79835 1.57691 12.437
1 1.24031 7.61015 4.97534
1 8.2786 11.3431 11.9728
1 10.3895 10.6779 2.77037
1 3.17837 10.0493 10.1907
1 2.19129 2.02475 2.99511
1 10.5363 2.06372 9.33549
1 2.25352 9.93911 3.24008
1 10.1484 10.1699 9.80152
1 10.3962 2.24551 3.19796
1 2.23498 2.54852 10.2608
1 0.0225662 2.13815 0.995542
1 11.549 12.1178 8.0719
1 12.7633 11.5638 1.17546
1 1.58121 12.4049 8.82752
1 0.0196106 11.3751 11.3232
1 1.66118 11.9318 5.44766
1 12.5986 1.4298 11.8278
1 11.0432 12.434 5.11539
96
 Atoms. Timestep: 4000
2 11.6227 8.47597 10.5701
2 4.08047 1.3521 11.4127
2 -0.207746 4.20541 5.52057
2 7.9759 12.4406 11.1784
2 -0.182429 4.40136 8.08035
2 8.51765 12.8365 0.980634
2 12.4142 8.04247 8.25046
2 5.94757 10.2887 12.801
2 10.9002 7.86439 5.56136
2 3.79575 11.6958 12.8326
2 1.48392 4.15646 6.61735
2 9.01042 1.51773 13.0133
2 1.97307 8.24322 6.73843
2 8.13869 10.4393 13.4008
2 10.5843 4.08342 7.05497
2 4.95383 2.36601 -0.119102
2 10.9495 5.72707 5.01676
2 5.91491 12.0428 11.563
2 2.249 6.08723 5.20116
2 6.57364 1.88109 12.4126
2 1.1543 6.40185 8.68063
2 7.10083 2.62625 1.54684
2 11.2063 6.19224 8.52953
2 6.48735 11.1314 1.10867
2 9.87215 9.25873 9.26559
2 3.6478 10.3587 1.58763
2 2.46166 3.65315 8.80589
2 9.24142 1.73365 2.30968
2 2.20525 8.96461 9.09353
2 9.09772 10.5285 2.66097
2 9.88577 4.45176 9.61706
2 4.14282 2.59176 2.63563
2 1.95666 3.92871 3.83761
2 8.72034 2.63788 11.0445
2 10.476 8.35004 3.45107
2 2.96023 11.5024 11.0667
2 10.257 2.96172 4.77806
2 5.20132 3.34577 10.2419
2 2.33783 8.38862 3.91012
2 8.78472 10.5333 10.929
2 -0.0278867 10.6947 13.2956
2 1.65586 12.4421 6.11595
2 0.476644 1.03133 13.2257
2 11.4267 0.343634 6.59778
2 -0.592028 12.4007 1.31633
2 -0.0333253 0.138822 8.39711
2 12.7215 12.6037 11.2901
2 0.0403728 12.9092 4.41746
2 11.7541 1.33665 2.67882
2 10.7021 12.1605 8.87696
2 0.285219 9.56451 1.97725
2 2.10629 1.01771 9.10283
2 1.24731 1.55241 2.30292
2 1.63086 11.0696 8.73348
2 11.3652 10.3415 2.54959
2 10.0814 1.6169 8.71163
2 0.972007 10.3327 11.5538
2 2.304 1.40214 4.46787
2 11.1753 1.79497 11.2003
2 10.9177 10.7417 4.63629
2 10.8873 10.6128 11.1981
2 10.5232 0.57838 4.63062
2 1.07337 2.50522 11.343
2 2.4461 11.1485 3.49783
1 10.8481 7.87465 9.34858
1 4.62348 11.0005 0.556621
1 1.46862 4.76211 8.07955
1 8.48261 1.54181 1.00251
1 1.12084 7.85478 8.58925
1 8.31609 11.2845 1.31171
1 11.2152 4.7283 8.33181
1 5.31168 2.29291 1.55504
1 1.16418 4.70583 5.118
1 7.86891 1.24685 11.3516
1 11.1794 7.20375 4.25091
1 4.12194 12.6591 11.4561
1 11.0897 4.03919 5.51312
1 5.07054 2.62117 11.7024
1 1.86484 7.74905 5.24128
1 7.49887 10.7384 11.8636
1 10.2106 9.9291 3.44892
1 2.00401 10.329 10.3531
1 2.30739 2.50294 3.14617
1 9.97725 2.97606 10.2411
1 2.23209 9.77001 2.74583
1 9.91456 10.6169 9.9013
1 10.1253 1.8458 3.69882
1 2.15705 2.61991 9.96654
1 12.9672 1.12588 1.50874
1 11.4893 0.629706 8.25867
1 11.9788 10.722 1.22725
1 1.42059 12.6928 8.09718
1 12.4417 10.821 11.7514
1 1.72624 -0.548186 4.52207
1 -0.310511 1.2525 11.4758
1 11.3195 12.2322 5.09764
96
 Atoms. Timestep: 6000
2 0.0372582 7.47888 8.39135
2 5.21151 12.4308 11.476
2 0.13149 4.71777 4.58204
2 8.32412 12.2241 11.6009
2 12.5158 3.21461 8.33194
2 7.59014 1.18884 2.01387
2 12.1854 8.72974 0.229982
2 4.79162 8.57355 11.5253
2 9.98913 7.31387 2.79618
2 4.50068 10.7439 13.195
2 1.55281 4.17244 6.24024
2 7.74214 1.37999 -0.225268
2 2.58806 8.43651 6.66727
2 7.45159 11.8106 0.195678
2 10.601 4.57149 6.0445
2 4.1225 2.49181 12.7083
2 10.541 6.6288 4.84258
2 6.26539 10.1695 12.2183
2 2.08463 6.64348 4.43118
2 7.03571 1.8609 11.3676
2 0.38228 5.4775 8.43551
2 6.13786 3.3274 1.13529
2 11.3514 5.04047 8.95818
2 5.74577 12.1364 2.0679
2 12.318 6.79148 11.0914
2 2.97835 11.1516 1.88969
2 2.54946 2.67696 8.42581
2 8.97294 3.345 1.62419
2 1.98478 8.36983 9.74542
2 8.52826 12.0111 2.83195
2 10.3213 2.7019 8.72258
2 3.84103 3.09895 2.16529
2 2.63212 4.19501 3.93612
2 9.95484 1.51413 11.5909
2 9.45433 9.69578 4.581
2 3.46136 10.3241 10.4811
2 10.3214 4.24494 3.61213
2 4.19489 1.20469 9.94625
2 1.57409 9.03878 4.03907
2 10.367 7.65861 12.4216
2 11.8237 11.9229 0.0790916
2 1.37859 12.2911 5.89081
2 0.508238 2.20658 13.2439
2 11.084 0.586955 6.56001
2 12.2024 0.208822 1.64141
2 0.0422501 12.5476 7.63006
2 0.367701 13.1792 12.7505
2 12.0613 1.22068 4.29039
2 11.495 2.08216 1.87758
2 11.5171 9.55531 11.5069
2 0.69232 11.3727 1.7597
2 2.67104 12.7556 8.20378
2 1.53226 3.016 1.87534
2 1.48478 10.4023 8.50532
2 10.9694 11.046 2.52242
2 11.2765 0.495014 9.39937
2 0.811219 10.9076 11.0538
2 2.13091 1.63752 4.16911
2 12.088 2.15503 11.3679
2 10.38 12.5752 4.05859
2 10.8551 11.0454 11.6743
2 10.0645 2.32944 4.14375
2 1.79702 0.614772 10.6568
2 0.616656 11.9518 3.83677
1 12.0912 6.50904 9.39017
1 4.44249 11.0668 1.51693
1 1.29911 3.83722 7.95147
1 7.51815 2.62679 1.18263
1 1.52047 8.24233 8.00998
1 7.26397 12.6336 1.71251
1 11.0033 3.79351 7.62534
1 4.53853 2.94132 0.818187
1 1.84786 5.26289 5.05186
1 8.06211 0.704105 11.8441
1 9.48198 7.80741 4.15119
1 4.60969 10.5104 11.5563
1 11.5281 5.35918 4.62915
1 5.33607 1.19592 11.5336
1 2.57958 8.27826 4.88816
1 7.58383 10.8641 12.4607
1 9.66751 11.1326 3.61096
1 1.83037 10.1046 10.2959
1 2.58473 2.8351 3.12715
1 10.9153 2.02306 10.0049
1 1.62783 10.6434 2.93852
1 12.0216 7.78982 12.2968
1 10.1981 2.91451 2.47731
1 2.57571 0.885025 9.40975
1 0.188659 1.98893 1.12183
1 11.2992 -0.173117 7.98034
1 12.162 11.6016 1.65213
1 1.53696 11.776 7.50015
1 12.5296 11.57 12.1171
1 0.96792 0.235167 4.59081
1 0.644697 1.65113 11.8271
1 10.3618 0.940619 5.18409
96
 Atoms. Timestep: 8000
2 12.1374 7.00342 8.53606
2 5.67292 9.19904 9.752
2 1.3265 4.43243 3.71514
2 5.51199 1.86429 11.6231
2 12.139 3.97058 8.1127
2 8.13557 0.813059 0.983928
2 11.6439 9.37071 11.2822
2 4.98151 12.2214 11.7642
2 11.763 7.04365 0.693958
2 4.68232 10.1242 12.3415
2 3.77005 5.66822 8.484
2 7.5249 2.96075 13.0098
2 1.85954 6.91348 6.80478
2 7.55347 11.2715 11.7628
2 9.88476 5.00362 6.50754
2 3.74398 1.72385 0.866016
2 10.1908 6.58692 3.72333
2 6.15321 11.1035 9.32056
2 4.96956 6.3707 6.45386
2 6.45968 4.91154 12.3562
2 1.03501 5.16365 10.2628
2 5.89994 2.58875 1.90236
2 10.6099 5.15979 9.2582
2 5.8102 11.4881 0.592597
2 11.5279 6.94055 11.2356
2 4.14303 10.5685 2.73695
2 2.73521 3.32717 9.51725
2 8.62875 2.79262 2.67391
2 0.95354 9.26005 8.01044
2 7.61013 10.5257 2.06047
2 9.15006 3.26982 8.17736
2 4.01916 3.49072 3.41189
2 3.53776 4.0362 5.79868
2 7.54718 3.24936 10.3603
2 10.7363 8.80153 2.00338
2 2.85104 10.1689 10.6176
2 10.9626 4.4401 4.70365
2 3.26292 1.3815 11.041
2 3.73035 9.36293 5.6455
2 1.13663 7.88374 11.1323
2 2.89314 10.6504 0.925564
2 1.79102 0.926352 6.10015
2 11.7244 1.14752 12.9523
2 10.1812 11.7185 6.1323
2 0.778131 12.0346 1.57227
2 12.4234 11.7136 7.14702
2 11.2601 12.5224 11.0152
2 12.3153 12.6847 4.4552
2 11.5132 2.64205 2.55146
2 0.79663 8.85828 0.790308
2 2.3792 9.68781 3.11091
2 1.34095 0.966711 9.0224
2 11.6244 7.52814 6.25763
2 2.11477 11.0857 8.10612
2 12.4699 10.926 3.10317
2 8.67913 0.629437 9.50933
2 0.463567 10.9026 9.86903
2 2.36127 2.23732 4.2016
2 9.28205 2.23408 10.9691
2 9.77967 11.1518 3.47183
2 10.4457 10.7475 8.91253
2 9.80886 1.24209 4.35338
2 0.456103 2.16207 10.8918
2 2.31762 11.7235 4.52633
1 11.935 6.02634 9.93336
1 4.53622 10.6478 1.17922
1 2.86582 4.83978 9.69966
1 7.7192 2.39553 1.65975
1 0.471644 7.68148 7.15616
1 7.43253 11.5983 0.620697
1 10.4317 4.24171 8.06918
1 4.57118 1.96754 2.33675
1 4.53072 4.78672 6.95702
1 6.6068 3.22322 11.6372
1 11.0583 7.06635 2.23575
1 4.70337 10.6087 10.5146
1 10.7427 6.08723 5.47368
1 4.33782 1.33969 12.1967
1 3.69405 7.36264 5.84451
1 7.54007 11.7416 9.90854
1 9.25317 9.97431 2.56545
1 1.59702 9.9424 9.28538
1 2.70704 3.69182 4.11222
1 8.74903 2.20602 9.31345
1 3.58092 10.5741 4.31863
1 12.0905 8.17296 12.1302
1 10.111 2.96825 3.68479
1 1.82492 1.99819 10.2742
1 12.4452 1.70545 1.1887
1 10.8992 11.1589 7.40411
1 1.30137 10.2643 1.67799
1 1.47972 12.2518 7.52944
1 11.1222 10.7776 10.3564
1 1.65814 0.745209 4.49375
1 11.1526 1.68096 11.5312
1 10.5197 12.1658 4.44838
96
 Atoms. Timestep: 10000
2 11.5071 7.59657 9.00888
2 3.63993 8.38342 10.6556
2 4.90142 1.9408 5.89294
2 6.45022 1.6144 12.023
2 7.17693 3.07777 5.5338
2 9.23823 0.763036 1.90109
2 11.2469 8.46531 5.46148
2 3.07116 0.467618 0.657955
2 10.7701 6.673 2.18341
2 3.85416 9.69897 12.1072
2 4.49978 6.69598 7.95918
2 7.791 3.03525 0.633229
2 1.44271 7.95037 6.23295
2 7.70556 10.7506 12.0065
2 9.30769 4.83417 5.84642
2 3.83256 2.95137 1.18028
2 10.7216 5.8595 4.46381
2 6.2485 10.6728 10.3543
2 3.08647 6.52673 5.92152
2 5.08788 3.75141 11.9122
2 1.98668 7.42204 9.6722
2 6.8422 1.4724 2.4196
2 9.43699 2.41969 4.86976
2 10.3895 10.1123 1.58579
2 11.9014 6.59612 11.7427
2 3.72266 10.6153 2.41643
2 3.58281 5.37411 9.89515
2 9.48268 2.8499 2.72103
2 1.14722 9.23889 8.57206
2 7.80525 10.3304 2.44953
2 8.61564 2.21072 7.6494
2 5.20712 3.83045 4.15831
2 5.30688 4.42451 6.70397
2 7.93364 3.11431 10.3978
2 8.54894 8.0357 3.15928
2 3.07223 10.632 10.0099
2 11.4862 3.67365 4.77381
2 3.49473 2.87855 11.1728
2 3.52451 9.03363 3.91792
2 11.8952 8.87083 0.932363
2 9.58253 9.4322 10.6314
2 2.88784 0.898135 6.77789
2 11.9941 1.30039 12.1071
2 0.681024 11.0297 5.84341
2 0.519258 11.578 1.09277
2 12.0743 0.747176 7.8289
2 10.7132 12.1693 9.80619
2 2.07774 12.0446 4.03829
2 12.0751 2.15856 2.96953
2 9.77069 8.50708 11.9647
2 1.8278 10.0828 1.22093
2 2.04623 2.9066 8.64651
2 11.9024 6.25326 6.74969
2 2.02092 0.759589 8.89402
2 0.611922 10.6989 3.42355
2 7.52076 1.01418 9.85037
2 0.397517 10.8259 10.0391
2 3.75654 2.23618 3.94298
2 10.0363 2.31417 9.65537
2 5.78276 8.89726 3.83551
2 10.6032 10.2632 8.62006
2 10.8514 0.916484 4.4835
2 0.78719 3.21938 10.248
2 4.69015 11.4909 4.94652
1 0.627483 7.00904 10.2557
1 3.35318 10.7617 1.00318
1 3.52048 7.18937 9.53206
1 8.36591 2.20672 1.85541
1 11.8579 8.0266 7.42659
1 9.06461 10.7755 1.04279
1 8.53367 3.0105 5.94021
1 4.26275 3.39641 2.9761
1 4.38687 5.92064 6.60275
1 6.54811 3.28536 11.8737
1 9.87604 6.74199 3.27789
1 4.5954 9.93617 10.7112
1 10.9872 4.92368 5.90897
1 2.96949 2.00398 12.7032
1 2.66576 8.12234 5.08902
1 6.94005 12.1635 11.131
1 7.46441 9.14617 3.77817
1 1.6277 10.7981 9.15949
1 5.68308 3.2256 5.79079
1 8.46693 2.06679 9.2987
1 4.89298 10.4113 3.76229
1 10.9328 7.55503 0.380484
1 10.5967 2.62606 3.94583
1 2.63278 3.86601 10.2567
1 12.2984 1.35451 1.36013
1 11.4757 10.9343 7.21206
1 0.346857 9.95982 1.91038
1 1.8327 1.46578 7.56304
1 10.5066 10.6122 10.2555
1 3.46356 0.82704 5.02973
1 11.6576 1.76472 10.0304
1 12.2755 11.8717 4.52683
96
 Atoms. Timestep: 12000
2 2.32802 8.37345 1.05848
2 5.07517 8.29986 9.17828
2 5.2223 2.43749 5.13272
2 4.76439 3.83393 11.9281
2 7.31977 3.29042 4.89282
2 7.93277 1.38869 1.85211
2 0.7096 9.29049 6.59826
2 2.76082 1.5017 1.01853
2 8.90751 5.91494 1.64931
2 3.89242 10.4422 10.9292
2 3.87853 6.00031 8.40602
2 7.2929 4.35635 12.2737
2 1.27575 7.0685 6.12108
2 8.17858 10.553 12.1717
2 8.56654 4.54452 6.2741
2 3.02565 4.58448 1.76454
2 8.92491 5.79329 4.44401
2 6.2695 9.95001 10.3104
2 3.33052 5.09818 5.82959
2 5.78478 5.47952 10.6342
2 3.29623 6.5441 11.248
2 7.14091 4.30475 3.00288
2 9.24502 2.86221 4.1355
2 10.1408 11.1922 2.37996
2 0.977756 6.7378 1.10368
2 2.79801 9.60983 0.719954
2 3.76798 3.467 8.23838
2 9.55041 3.67345 1.72085
2 1.37072 7.08392 10.4627
2 7.9104 10.1375 3.27377
2 8.98985 2.50015 7.13862
2 4.55489 4.20223 4.05047
2 5.52106 4.32531 6.13775
2 7.67903 3.42688 10.1911
2 8.25309 7.46287 2.79915
2 2.95214 9.62379 9.40199
2 10.8524 4.36597 5.07778
2 2.22043 3.87894 11.2678
2 3.8645 8.18296 5.10165
2 10.8846 8.81427 2.20215
2 8.87417 9.22306 10.0045
2 3.90489 11.8035 6.55156
2 10.9937 2.15048 11.3914
2 1.25287 11.2549 5.80153
2 11.1341 4.93185 1.16009
2 1.43338 11.9382 7.81858
2 10.808 10.7422 10.3754
2 2.89755 1.94868 4.60459
2 11.4777 3.01734 2.41555
2 10.6331 7.67736 11.6569
2 0.817047 10.917 1.11518
2 3.24933 1.56135 9.38033
2 10.6293 6.59553 7.24104
2 4.36231 10.8851 8.57724
2 1.15677 11.0885 3.78889
2 8.21737 0.880124 9.98144
2 10.6942 8.80601 8.84343
2 5.83719 11.7868 5.89178
2 9.74166 2.13733 9.35991
2 6.04991 9.05348 4.00521
2 10.7227 11.5939 8.13146
2 11.4262 2.4151 4.85039
2 1.13861 2.43954 9.88331
2 4.12476 10.9643 3.93788
1 2.05639 6.93228 12.0357
1 2.44016 11.189 12.3783
1 4.57103 6.45351 9.87872
1 8.11597 3.33742 1.71114
1 11.704 8.1502 7.58774
1 8.52019 11.1501 2.04608
1 8.6682 2.86299 5.69763
1 3.54727 5.21863 3.13222
1 4.42157 4.90372 7.36158
1 6.15959 3.99174 10.8663
1 8.16107 5.82409 3.04618
1 4.79888 9.71319 9.75647
1 9.85043 5.63331 5.75173
1 3.58769 3.16469 0.928562
1 2.59153 6.63657 5.27074
1 7.8061 10.5848 10.5108
1 7.53491 8.60326 3.59589
1 2.04921 7.84703 9.31984
1 5.90361 4.12807 4.67487
1 8.26958 2.00775 8.93933
1 4.3117 9.2964 3.66509
1 10.646 6.88692 1.354
1 10.9032 3.43136 3.74922
1 2.5228 3.13616 9.57743
1 10.9323 3.40997 12.5213
1 11.6543 10.9162 7.02238
1 11.5855 10.2939 2.39518
1 3.51699 0.716853 8.09516
1 10.3615 8.89264 10.4261
1 4.44134 1.12638 5.02902
1 11.1501 1.10911 9.85252
1 1.42329 1.29547 4.70409
96
 Atoms. Timestep: 14000
2 0.900525 4.55429 11.8593
2 5.66366 7.05594 10.4324
2 4.94042 1.65116 4.82128
2 7.0775 3.36805 12.4484
2 6.62789 4.0107 4.92053
2 8.54679 1.66485 1.3422
2 2.25477 11.48 8.45821
2 3.64402 11.3894 1.54951
2 10.2772 6.93076 1.38193
2 4.80016 8.98105 12.4627
2 3.6778 5.01904 8.75229
2 5.12927 4.94438 0.575394
2 1.07643 8.52072 6.92972
2 8.37334 11.6825 11.9544
2 9.56633 4.02942 5.97132
2 4.18239 3.62292 1.80073
2 9.46356 6.13124 4.12565
2 6.50373 10.1121 11.5141
2 2.61785 6.38684 6.98131
2 5.36525 4.82395 10.3954
2 2.91023 6.4993 10.6844
2 9.22417 4.82601 1.79184
2 8.86921 2.90715 4.09031
2 10.1542 11.7891 1.85921
2 11.8393 7.62373 11.478
2 3.60754 9.36826 2.38389
2 2.29073 3.33889 8.00528
2 9.27354 3.73359 11.8035
2 3.23669 9.33289 7.88022
2 7.98836 10.5537 2.54078
2 7.48358 2.40553 6.82168
2 4.82363 4.72326 3.80513
2 4.57997 4.05798 6.67378
2 4.75481 2.79463 11.4798
2 7.77674 7.3871 2.22683
2 5.18994 9.41366 9.91409
2 11.1291 4.33272 4.08278
2 3.13025 1.44436 11.9548
2 4.35051 9.24978 5.74808
2 11.1935 9.46461 1.46813
2 8.24416 10.2543 9.46502
2 2.76076 1.43207 6.25734
2 0.527101 0.728925 1.17777
2 0.651418 0.918988 6.74719
2 0.702234 2.55733 12.2288
2 3.27434 2.12448 9.09752
2 10.263 10.5651 9.15961
2 1.88361 12.0339 4.67181
2 10.63 3.13192 1.75454
2 9.79271 8.61102 11.0947
2 1.90338 10.3289 1.32258
2 3.38609 10.1157 10.6716
2 11.4346 6.00784 6.28488
2 4.69845 11.7527 9.52895
2 0.676375 10.9605 3.5017
2 6.03312 2.02676 9.43355
2 10.0439 8.06417 8.08606
2 2.63171 1.67085 3.28168
2 9.24616 1.12737 9.4459
2 5.94765 9.37388 3.18488
2 0.633168 1.63033 8.88532
2 11.7826 1.71435 4.61492
2 0.637349 11.9931 10.5132
2 4.15343 11.3312 4.30828
1 1.36431 6.29299 11.4533
1 3.50855 10.0429 12.6623
1 4.23575 6.08161 9.87684
1 8.37047 3.40095 1.06703
1 11.246 7.68679 7.04436
1 8.48692 11.6618 1.56796
1 7.99219 3.0004 5.32222
1 4.56608 5.19627 2.06114
1 3.25447 4.90654 7.19187
1 5.62699 3.97136 11.5914
1 8.96689 6.2663 2.61311
1 5.97634 8.50627 11.1433
1 10.1461 5.21796 5.25712
1 3.33173 1.7278 1.82949
1 2.99756 8.20511 6.79206
1 7.53584 10.9393 10.6743
1 7.61988 8.94887 2.48801
1 3.94652 10.5261 9.01332
1 5.25465 3.64301 5.37274
1 7.80217 1.98817 8.69791
1 4.25534 9.72774 4.00501
1 10.9944 8.22542 12.633
1 10.794 2.84039 3.55281
1 1.3651 1.03703 12.0601
1 10.9784 3.58534 11.9464
1 1.92519 1.50722 7.75984
1 11.702 10.8452 2.02116
1 4.41561 1.71016 10.2925
1 9.46112 9.18545 9.53942
1 3.2107 0.939221 4.65005
1 10.8433 0.669693 9.25803
1 11.8293 11.8661 5.16107
96
 Atoms. Timestep: 16000
2 0.974659 4.79008 1.35029
2 4.99652 7.1743 11.1999
2 4.53637 3.12962 5.31409
2 6.85418 3.84448 1.28836
2 6.82476 4.27571 4.55618
2 9.0099 2.80441 1.31858
2 2.44097 10.7928 8.59863
2 2.30449 10.9054 12.6124
2 9.76516 7.37113 1.86032
2 6.99827 9.04116 11.9494
2 4.40173 5.9377 9.13205
2 2.62621 6.34113 1.75777
2 1.50944 8.19628 6.93088
2 9.70943 0.869774 0.874148
2 8.62966 5.18034 6.02726
2 4.48577 1.918 0.827405
2 9.81986 7.38708 4.26464
2 6.8733 7.30551 10.0977
2 3.94046 7.12603 6.82593
2 5.21654 4.61026 11.709
2 3.00005 6.42859 11.7645
2 7.72272 5.84126 2.31642
2 9.00494 2.91642 4.7224
2 9.3973 1.17676 2.8655
2 0.799857 7.41114 12.5018
2 3.72567 9.64403 1.80605
2 2.36533 5.21355 7.49631
2 9.76122 4.99383 1.8747
2 4.46692 10.0643 7.41516
2 7.29691 11.746 1.30868
2 7.7952 2.43705 6.489
2 4.51029 5.12072 3.46882
2 5.26757 4.63529 6.53295
2 5.46838 2.18197 11.005
2 8.14099 8.83067 2.24998
2 5.29433 9.40896 9.70949
2 11.8008 5.725 3.44401
2 11.7856 10.3887 4.96735
2 3.75515 9.73554 5.11689
2 10.6625 9.16631 1.91108
2 9.01382 8.05152 8.84594
2 3.17726 3.64229 2.91604
2 11.4453 11.1291 1.98596
2 1.47271 11.9581 6.66765
2 0.863884 1.48225 11.9169
2 3.07551 1.5003 8.40505
2 11.1683 9.46191 8.98541
2 1.72833 1.85494 4.03959
2 11.621 2.82057 3.3364
2 10.8442 7.59473 10.812
2 0.89637 9.41879 12.351
2 2.9104 9.50828 10.8803
2 1.01318 6.53033 5.44343
2 4.60324 11.438 9.55414
2 2.49649 11.2061 4.2651
2 5.99049 1.73502 8.04487
2 11.4614 6.80273 7.66224
2 2.43701 1.59292 1.61874
2 8.89653 11.7811 8.65042
2 5.62578 10.4505 2.99446
2 11.3586 12.0368 8.9034
2 11.3151 1.36749 5.0408
2 10.2227 11.9133 10.9559
2 4.16216 12.1447 3.2295
1 1.53643 5.73243 12.2682
1 2.72266 9.42278 12.4476
1 4.33088 5.7795 11.0746
1 8.15429 4.31122 1.63104
1 1.56145 6.66839 7.05394
1 8.40413 1.44164 1.54049
1 7.98122 3.82161 5.48647
1 2.98367 5.54519 3.32605
1 4.22674 5.51707 7.46532
1 5.50076 3.08794 12.5798
1 8.48004 7.48255 3.04665
1 6.00207 8.45967 10.6423
1 11.5954 7.10194 3.9884
1 2.67354 1.22948 12.1921
1 3.27599 8.82288 6.40247
1 7.90738 6.79912 9.02866
1 6.90014 10.1024 1.63228
1 3.74701 9.94459 9.36821
1 5.10386 4.37925 4.73239
1 7.67287 1.42173 7.99175
1 3.98213 10.2636 3.42185
1 10.841 8.34465 12.4118
1 10.0335 2.02296 3.99197
1 11.132 0.494471 12.3113
1 11.4539 4.444 2.61474
1 1.37529 0.801805 8.21987
1 11.4604 10.1764 3.22311
1 4.83637 1.6521 9.18964
1 10.6136 8.04857 9.03902
1 3.21312 1.7799 2.93329
1 10.4115 10.8867 9.40144
1 1.15196 11.8673 5.25716
96
 Atoms. Timestep: 18000
2 0.624146 5.99989 1.78608
2 4.40884 5.96079 10.3883
2 6.49463 2.76034 6.43589
2 6.37829 4.91325 11.1453
2 8.61606 4.7522 6.73183
2 5.73128 3.54875 1.71585
2 2.15878 10.1978 9.73996
2 3.4347 10.9581 0.736511
2 10.4421 6.81534 11.2295
2 5.56805 6.90938 0.778679
2 3.24782 5.37646 8.4821
2 3.89181 5.93108 1.27426
2 4.00339 9.23879 5.73774
2 5.6845 11.5437 1.31629
2 6.24736 1.68839 2.73346
2 4.1725 2.44093 12.2538
2 9.40593 5.61231 1.01166
2 5.4469 8.61178 11.6556
2 5.07041 8.40195 7.73174
2 3.38398 3.08114 9.20481
2 2.43795 5.52624 11.0886
2 7.84679 6.11787 10.3817
2 9.78393 7.45507 5.40198
2 8.37019 1.80058 2.21173
2 1.06679 7.15836 12.2892
2 3.78893 9.25765 2.46988
2 2.86915 7.08395 6.88822
2 10.808 1.61592 1.79254
2 6.37799 11.4103 6.99645
2 7.67614 11.2535 3.18271
2 7.39388 10.6356 11.2167
2 6.92495 4.39015 4.70962
2 5.61073 5.38238 7.01099
2 5.59383 2.17536 10.6326
2 7.92764 7.14027 1.18096
2 3.46775 7.55818 8.92123
2 10.5302 6.75043 2.99339
2 1.77763 9.58139 1.96796
2 5.64182 9.79431 4.66005
2 11.2816 8.63631 1.09768
2 6.31294 9.01275 1.411
2 4.94765 2.74899 4.36462
2 11.685 11.2041 0.841897
2 1.95749 11.2438 6.84885
2 1.40214 1.46855 0.461563
2 4.59011 10.9878 10.974
2 9.519 11.2535 8.95559
2 2.16087 1.27413 4.75441
2 10.4132 4.05892 1.92343
2 10.0061 9.13658 11.2786
2 2.78623 7.96039 1.31454
2 3.28774 8.5542 11.5487
2 1.04679 8.81644 5.29452
2 2.66169 1.11468 9.27013
2 1.29297 10.5305 3.65829
2 5.24629 1.48854 8.53243
2 0.948146 8.31381 10.5093
2 2.88942 1.47224 2.61076
2 8.77446 1.73122 7.76371
2 5.81036 6.37608 3.74771
2 11.8535 12.0947 8.92276
2 9.5789 1.60218 4.10626
2 10.8062 1.76803 10.3153
2 4.40382 11.7323 4.15753
1 2.28357 6.17768 0.958766
1 3.02046 9.42854 1.00245
1 3.34063 4.56966 9.9915
1 6.89971 5.43907 9.50521
1 2.29743 8.2884 5.80674
1 7.3289 0.533583 1.95749
1 9.2744 6.67647 6.94833
1 6.11391 3.23327 3.5305
1 4.43376 6.47393 7.78983
1 5.50696 3.50398 12.0838
1 8.68625 6.34538 11.8879
1 5.24237 6.97349 11.3276
1 10.956 7.94367 4.2691
1 3.03939 1.27915 0.553651
1 5.88337 9.66505 6.34168
1 6.05557 10.0874 12.1523
1 6.28157 7.35531 2.26824
1 2.58398 8.44655 10.302
1 6.9782 4.24449 6.61357
1 6.81277 1.27468 7.61175
1 4.48505 10.2152 3.65929
1 11.295 8.16821 11.6881
1 9.9722 2.51569 2.65365
1 11.3128 1.15905 12.074
1 10.7006 5.41956 2.21262
1 1.73151 11.2564 8.42013
1 11.8621 10.3182 2.09963
1 4.54681 0.994198 9.9217
1 8.75272 10.1862 10.2292
1 3.78794 1.63875 4.23303
1 10.1307 1.24087 8.67389
1 1.10963 11.4228 5.04127
96
 Atoms. Timestep: 20000
2 1.88105 6.1792 1.05748
2 5.7518 7.70504 10.2112
2 7.03844 1.77695 6.07774
2 5.48435 4.79642 11.9204
2 7.05061 5.3727 4.53616
2 5.1179 4.37629 2.31998
2 2.28941 8.31512 8.78614
2 2.74063 11.6221 1.16431
2 10.7072 5.54479 12.5418
2 8.27522 9.03163 1.15178
2 3.17006 4.06784 8.64453
2 4.72075 6.46524 2.78473
2 4.16909 8.12459 6.45726
2 6.85969 11.7298 1.22938
2 6.94322 2.33084 1.11972
2 4.24276 2.70826 1.75147
2 8.40538 5.70305 2.28893
2 5.58725 10.4844 11.0438
2 5.20162 9.70951 8.48299
2 9.21846 11.1121 6.23054
2 1.48296 3.56911 10.818
2 8.70257 7.27474 11.7972
2 9.65248 7.12891 4.99917
2 8.44794 2.41908 2.5216
2 9.70379 5.16086 9.89985
2 3.55159 10.7961 3.15215
2 2.259 6.08269 7.31187
2 10.3853 2.6508 12.2313
2 7.03789 10.4088 6.55648
2 6.29288 11.4739 3.60893
2 7.86856 9.82431 11.3162
2 5.08848 4.83676 5.15609
2 5.39439 5.46718 7.81752
2 8.34693 0.770441 10.5954
2 7.89746 7.75252 3.09013
2 3.70147 6.73158 9.57596
2 0.666345 6.60828 3.34476
2 1.08956 9.84513 1.35777
2 5.44191 9.07901 5.0319
2 1.37584 6.62906 10.664
2 6.03774 8.54069 2.97736
2 6.29997 3.05199 6.00317
2 1.03558 9.27407 11.099
2 11.0878 0.718293 5.47873
2 1.25695 2.42746 0.822566
2 6.45963 1.27813 10.5403
2 9.68189 10.2663 10.2031
2 1.82196 2.57622 5.14934
2 11.2087 4.1212 2.82235
2 9.98727 7.77323 10.4135
2 2.90605 8.65445 2.25937
2 3.67062 9.06452 10.0826
2 1.04473 7.49333 6.25797
2 4.55188 2.91567 9.6335
2 10.7177 9.46402 12.1744
2 6.57362 11.7856 8.49553
2 2.96282 8.02049 12.1049
2 3.36694 1.66785 3.31019
2 8.88543 1.07549 8.21774
2 6.80077 6.92719 12.5675
2 11.0992 11.7716 8.53507
2 10.2308 1.46131 3.64131
2 10.9023 0.51862 11.2044
2 3.16753 0.68786 6.74124
1 3.20978 6.94205 1.45354
1 2.30484 10.171 2.3215
1 2.70325 2.87364 9.44886
1 6.15859 6.19001 11.3805
1 2.4669 7.74401 7.06462
1 7.11019 1.2972 2.60646
1 8.45283 6.40476 3.86995
1 5.36954 5.4741 3.78665
1 3.49809 5.60395 8.43571
1 5.6228 3.40964 0.940467
1 9.00149 5.92325 0.780156
1 5.39984 9.26249 10.093
1 11.5964 7.49015 4.78015
1 3.02908 1.81015 1.6568
1 5.45488 9.01721 6.82751
1 7.17003 11.3468 11.4829
1 7.02179 7.97592 1.75689
1 2.38065 7.86736 10.5284
1 6.2724 4.75551 6.33052
1 7.93265 12.0271 6.89739
1 5.21943 9.84696 3.70909
1 10.8457 6.44406 10.7596
1 10.0144 2.496 2.06107
1 11.8619 2.15038 11.5275
1 11.8156 5.5817 2.01636
1 10.9063 11.0269 6.99447
1 11.9712 10.4561 11.7818
1 5.58881 1.5774 9.2732
1 9.18665 8.98849 11.4675
1 2.9193 1.58132 5.14594
1 9.6852 11.9618 9.68206
1 11.4939 2.01377 4.84411
96
 Atoms. Timestep: 22000
2 2.10496 6.86007 1.16791
2 6.40541 7.43896 10.8884
2 6.61129 2.63152 7.03242
2 5.79524 5.41993 12.0232
2 5.13299 3.01323 4.28278
2 5.24187 4.52484 2.0934
2 0.916774 11.3158 5.96497
2 2.86451 1.04912 1.17634
2 9.38929 3.3136 1.70791
2 4.92829 8.7932 4.46301
2 3.08657 2.82448 8.73631
2 3.65842 5.83939 2.58459
2 3.53752 10.0428 7.14753
2 8.495 10.825 2.1475
2 5.26498 2.59983 0.495795
2 3.23636 3.42813 12.2807
2 7.52926 5.67703 3.14837
2 4.97789 11.3167 12.4198
2 5.37724 9.45421 8.32146
2 11.5499 11.6579 4.16678
2 1.28651 1.91796 10.0904
2 7.8109 5.63848 0.854803
2 9.79775 6.99415 4.34459
2 8.47128 10.1258 4.41859
2 11.2408 3.7289 11.014
2 3.28582 10.4814 2.38332
2 4.46531 11.2688 5.09043
2 11.4923 11.9033 11.4188
2 6.05054 12.1391 8.3934
2 6.16202 10.6688 4.06397
2 9.32235 9.65235 11.7391
2 3.56676 2.34723 5.57682
2 4.84552 3.94332 6.76018
2 10.5729 10.3931 10.0074
2 7.58371 7.76412 3.8312
2 4.06543 5.60613 9.17213
2 0.801912 6.7386 3.23907
2 3.10301 9.95302 11.3532
2 4.97393 0.759751 5.87241
2 11.3197 6.36166 12.4345
2 5.52943 6.13833 3.93203
2 8.43482 8.73541 4.41062
2 1.8612 7.04564 10.914
2 10.7602 2.45693 5.47987
2 12.1887 2.56672 0.778684
2 7.39249 0.442524 12.0731
2 10.3143 0.500194 7.01606
2 1.08111 4.14913 5.07672
2 11.519 4.59153 1.58778
2 11.1645 6.8051 10.152
2 3.45746 8.82617 0.96943
2 4.36754 7.88405 10.1032
2 1.5249 8.46965 5.66858
2 3.89484 0.894937 10.964
2 11.456 8.90202 11.5643
2 6.70621 2.0091 10.0782
2 3.74496 6.47146 11.7068
2 2.74394 2.91658 2.77554
2 8.4205 0.461273 8.67393
2 5.29919 6.86856 1.58452
2 9.17751 5.13131 5.18033
2 11.3588 3.6087 3.6339
2 10.236 1.64743 10.07
2 3.65901 11.6948 8.82352
1 3.68852 7.04753 1.37145
1 3.44325 10.7855 0.615447
1 2.92285 1.50831 9.58556
1 6.6803 6.93323 12.4425
1 2.08424 9.86963 6.2813
1 7.30029 10.995 3.18871
1 8.5546 6.32039 4.12368
1 4.48677 4.83165 3.56982
1 3.83601 4.25516 8.19
1 4.86865 4.15912 0.551047
1 8.05725 4.42808 2.05252
1 5.69498 8.25812 9.41026
1 11.7476 7.46243 4.5863
1 2.5434 2.50952 1.26624
1 4.95142 11.2055 7.58681
1 8.51314 10.5673 0.625683
1 5.98827 7.64414 3.69973
1 3.39634 6.55895 10.217
1 5.18607 2.49259 6.02544
1 7.28157 1.812 8.20518
1 4.26089 10.1737 3.68209
1 11.035 5.43277 11.1569
1 11.0028 3.04648 2.06116
1 11.3769 2.20527 11.0565
1 0.864075 6.10056 1.72592
1 11.1267 0.987803 5.60448
1 1.6756 8.55606 11.7349
1 5.60887 1.04539 11.5497
1 10.3262 8.34443 10.3561
1 2.51816 2.9112 4.46035
1 10.0771 11.7178 8.61147
1 10.4747 3.92043 5.05516
96
 Atoms. Timestep: 24000
2 3.8705 7.53244 0.622159
2 8.86378 7.53598 11.3246
2 5.45419 11.6646 6.84033