LAMMPS (2 Aug 2023 - Update 3)
units metal
boundary p p p
atom_style full
pair_style tersoff
neighbor 2.0 bin
neigh_modify delay 1




read_data SiO.data
Reading data file ...
  orthogonal box = (0 0 0) to (12.589463 12.589463 13.222096)
  1 by 1 by 1 MPI processor grid
WARNING: Atom style in data file atom-ID molecule-ID atom-type q x y z differs from currently defined atom style full (../read_data.cpp:621)
  reading atoms ...
  96 atoms
Finding 1-2 1-3 1-4 neighbors ...
  special bond factors lj:    0        0        0       
  special bond factors coul:  0        0        0       
     0 = max # of 1-2 neighbors
     0 = max # of 1-3 neighbors
     0 = max # of 1-4 neighbors
     1 = max # of special neighbors
  special bonds CPU = 0.000 seconds
  read_data CPU = 0.004 seconds
replicate 1 1 1
Replication is creating a 1x1x1 = 1 times larger system...
  orthogonal box = (0 0 0) to (12.589463 12.589463 13.222096)
  1 by 1 by 1 MPI processor grid
  96 atoms
Finding 1-2 1-3 1-4 neighbors ...
  special bond factors lj:    0        0        0       
  special bond factors coul:  0        0        0       
     0 = max # of 1-2 neighbors
     0 = max # of 1-3 neighbors
     0 = max # of 1-4 neighbors
     1 = max # of special neighbors
  special bonds CPU = 0.000 seconds
  replicate CPU = 0.001 seconds

pair_coeff * *  /root/Desktop/host/job1/SiO.tersoff Si O
Reading tersoff potential file /root/Desktop/host/job1/SiO.tersoff with DATE: 2010-08-16



group Si type 1
32 atoms in group Si
group O type 2
64 atoms in group O
#create_bonds many SiO SiO 1 0.5 10

dump dmp all xyz 2000 dump.lammpstrj



variable apot equal pe
# first number: number of steps to get current temp
# second number: calculate average n number of temp read above.
# third number: temp record (this must be larger than the one above )

variable atemp equal temp
fix temp_info all ave/time 10 200 2000 v_atemp file temperature.dat

#The cutoff used for pairwise computation (any pair style) and the
#associated neighbor list is the maximum cutoff that any compute
#can use. Atoms don't know any info about their neighbors
#further away than that.

# compute coord number
compute coor12 Si coord/atom cutoff 2.5 group O
compute coor11 Si coord/atom cutoff 2.5 group Si
compute coor22 O coord/atom cutoff 2.0 group O

compute sumcoor12 all reduce ave c_coor12
compute sumcoor11 all reduce ave c_coor11
compute sumcoor22 all reduce ave c_coor22


fix 12coord all ave/time  10 200 2000 c_sumcoor12 file Si-O_coord_number.dat
fix 11coord all ave/time  10 200 2000  c_sumcoor11 file Si-Si_coord_number.dat
fix 22coord all ave/time  10 200 2000  c_sumcoor22 file O-O_coord_number.dat




# unit cell information
variable avol equal vol
variable alx equal lx
variable aly equal ly
variable alz equal lz
fix cell_info all ave/time 10 200 2000 v_avol v_alx v_aly v_alz file cell_volume.dat


fix potential_info all ave/time 10 200 2000 v_apot file potential-energy.dat
thermo 1000



velocity all create 6000 263402 mom yes rot no dist gaussian
fix npt1 all npt temp 6000 5000 0.1 iso 0 0  1
timestep 0.001
#run 500
run 80000
Neighbor list info ...
  update: every = 1 steps, delay = 1 steps, check = yes
  max neighbors/atom: 2000, page size: 100000
  master list distance cutoff = 4.8
  ghost atom cutoff = 4.8
  binsize = 2.4, bins = 6 6 6
  4 neighbor lists, perpetual/occasional/extra = 1 3 0
  (1) pair tersoff, perpetual
      attributes: full, newton on
      pair build: full/bin
      stencil: full/bin/3d
      bin: standard
  (2) compute coord/atom, occasional, copy from (1)
      attributes: full, newton on
      pair build: copy
      stencil: none
      bin: none
  (3) compute coord/atom, occasional, copy from (1)
      attributes: full, newton on
      pair build: copy
      stencil: none
      bin: none
  (4) compute coord/atom, occasional, copy from (1)
      attributes: full, newton on
      pair build: copy
      stencil: none
      bin: none
Per MPI rank memory allocation (min/avg/max) = 6.021 | 6.021 | 6.021 Mbytes
   Step          Temp          E_pair         E_mol          TotEng         Press          Volume    
         0   6000          -638.06385      0             -564.38556      73800.118      2095.6304    
      1000   5930.6929     -569.37554      0             -496.54833      9652.4752      2272.6471    
      2000   6274.9469     -562.83362      0             -485.77907      38642.889      2297.2064    
      3000   5386.3954     -556.73408      0             -490.59069     -9892.0439      2365.9073    
      4000   5331.3149     -549.7829       0             -484.31588      24946.214      2267.4896    
      5000   4930.2083     -536.90327      0             -476.36172     -16481.723      2138.0721    
      6000   6018.8092     -536.65868      0             -462.74943     -25156.666      2296.8825    
      7000   5972.8676     -540.60067      0             -467.25557     -49373.105      2190.7034    
      8000   6246.9269     -534.46025      0             -457.74978      9617.2809      1940.3431    
      9000   5604.7482     -525.34386      0             -456.51915     -40080.714      2003.3303    
     10000   6105.3271     -535.43502      0             -460.46335      20092.908      1742.319     
     11000   6045.6137     -546.12044      0             -471.88203     -46361.239      1935.1291    
     12000   6119.6199     -535.20169      0             -460.05451     -9062.1886      1522.7879    
     13000   5830.4962     -541.8291       0             -470.23228      52.975515      1671.382     
     14000   5882.5873     -547.26734      0             -475.03085      22143.506      1613.4571    
     15000   6073.7636     -545.88025      0             -471.29617     -3273.4345      1529.2472    
     16000   5633.6646     -536.90905      0             -467.72926      16789.259      1562.0964    
     17000   6783.9467     -537.23742      0             -453.9325      -4852.0893      1611.9819    
     18000   5364.4755     -522.11715      0             -456.24293     -69995.103      1619.1726    
     19000   5662.5357     -538.39238      0             -468.85806      11317.587      1521.0711    
     20000   6322.9288     -528.14072      0             -450.49696      60337.206      1540.2769    
     21000   5658.6516     -537.17357      0             -467.68695     -36632.048      1553.6484    
     22000   5716.3118     -528.49176      0             -458.29709      13912.533      1583.1704    
     23000   5379.0736     -538.28308      0             -472.2296      -21820.226      1670.7524    
     24000   5957.4672     -535.72758      0             -462.57159     -5687.4211      1509.8616    
     25000   4920.9163     -544.07635      0             -483.64891     -21110.847      1632.7518    
     26000   6776.1062     -531.00012      0             -447.79147     -22731.582      1451.208     
     27000   5289.1902     -541.87823      0             -476.92849      8593.16        1374.9587    
     28000   5261.5324     -548.49026      0             -483.88014     -13321.626      1391.7189    
     29000   5798.9889     -533.40731      0             -462.19738      50527.506      1457.9364    
     30000   6012.2166     -550.03227      0             -476.20397      35269.963      1416.6896    
     31000   6052.2862     -547.09641      0             -472.77607     -10861.273      1569.2232    
     32000   6336.0533     -551.76851      0             -473.96359      46983.115      1376.309     
     33000   6397.8871     -546.91378      0             -468.34956     -15891.762      1557.8016    
     34000   5222.1615     -546.62967      0             -482.50302     -48443.211      1459.7559    
     35000   5505.8889     -541.77973      0             -474.16899     -30043.094      1551.5679    
     36000   5331.8477     -545.80098      0             -480.32742      2262.7255      1382.0568    
     37000   4582.4609     -549.2963       0             -493.025        41367.236      1333.2148    
     38000   5204.2176     -543.77647      0             -479.87016      336.58796      1440.5999    
     39000   6593.6123     -544.64962      0             -463.68195     -30788.475      1351.579     
     40000   5216.6368     -534.0909       0             -470.03209     -68144.939      1495.6825    
     41000   5488.6406     -545.54456      0             -478.14563     -9776.7631      1429.1022    
     42000   6033.3212     -536.75817      0             -462.67072      18008.532      1418.6216    
     43000   5610.2642     -542.18435      0             -473.29191      5618.3658      1365.4274    
     44000   5668.0155     -546.92512      0             -477.32352     -19952.847      1656.0221    
     45000   5763.3054     -556.67719      0             -485.90545      28835.989      1544.2345    
     46000   5632.2984     -559.51738      0             -490.35437     -30043.226      1512.3976    
     47000   5161.6436     -559.29135      0             -495.90784     -25947.893      1566.5969    
     48000   5672.1058     -548.9136       0             -479.26176     -10550.906      1507.7603    
     49000   4576.1267     -561.93034      0             -505.73681      7544.2234      1444.896     
     50000   5515.0589     -544.53253      0             -476.80918     -42921.734      1574.972     
     51000   5693.113      -551.1959       0             -481.2861       5706.942       1384.4187    
     52000   5536.6719     -556.16742      0             -488.17867     -10347.002      1424.0791    
     53000   4883.7083     -559.17066      0             -499.20012      5452.3553      1425.0026    
     54000   5311.0254     -544.13655      0             -478.91868      14185.877      1406.3766    
     55000   4670.8063     -558.47752      0             -501.12136     -32125.09       1521.6755    
     56000   5610.1098     -536.25524      0             -467.3647       18263.34       1476.9497    
     57000   6270.7753     -550.79287      0             -473.78955      1232.1504      1405.2571    
     58000   5381.7256     -545.59839      0             -479.51234      26310.675      1394.4718    
     59000   5122.9831     -551.57429      0             -488.66553     -53600.901      1423.8511    
     60000   5779.3891     -537.02415      0             -466.0549       98422.454      1449.8888    
     61000   4943.3381     -553.49009      0             -492.78731      8226.687       1367.0883    
     62000   5454.2288     -550.46942      0             -483.49305     -12785.383      1276.8299    
     63000   4879.7728     -548.48694      0             -488.56473     -4271.8603      1430.6854    
     64000   4773.3793     -551.28286      0             -492.66713      5081.0061      1487.0473    
     65000   4681.3835     -555.78545      0             -498.2994       527.77386      1373.2852    
     66000   4371.0635     -538.67582      0             -485.00041     -20900.564      1576.2509    
     67000   5026.2728     -550.87606      0             -489.15487      55640.532      1355.7177    
     68000   5671.1374     -549.75837      0             -480.11843     -16191.169      1461.9449    
     69000   4127.1229     -555.76989      0             -505.09        -30617.336      1647.5794    
     70000   4837.1147     -551.48303      0             -492.08465     -29087.425      1570.0615    
     71000   5276.7654     -559.00235      0             -494.20518     -16872.551      1672.9541    
     72000   4161.3215     -556.14386      0             -505.04402      21647.619      1547.1728    
     73000   5010.8032     -553.39268      0             -491.86145     -29579.684      1667.2885    
     74000   4956.2581     -561.14361      0             -500.28218     -23317.394      1588.2163    
     75000   4741.5059     -556.29478      0             -498.07044     -63545.698      1503.5709    
     76000   4781.118      -557.97867      0             -499.26791      4577.8438      1329.338     
     77000   5653.6313     -550.39367      0             -480.9687       37408.081      1460.3463    
     78000   5470.8305     -545.40257      0             -478.22234      7359.5156      1420.8978    
     79000   4875.8502     -556.18973      0             -496.31568     -17926.295      1313.9481    
     80000   4470.5496     -552.15412      0             -497.25705     -24815.041      1452.9687    
Loop time of 7.03814 on 1 procs for 80000 steps with 96 atoms

Performance: 982.078 ns/day, 0.024 hours/ns, 11366.646 timesteps/s, 1.091 Matom-step/s
98.4% CPU use with 1 MPI tasks x no OpenMP threads

MPI task timing breakdown:
Section |  min time  |  avg time  |  max time  |%varavg| %total
---------------------------------------------------------------
Pair    | 5.7748     | 5.7748     | 5.7748     |   0.0 | 82.05
Bond    | 0.0028712  | 0.0028712  | 0.0028712  |   0.0 |  0.04
Neigh   | 0.46602    | 0.46602    | 0.46602    |   0.0 |  6.62
Comm    | 0.21612    | 0.21612    | 0.21612    |   0.0 |  3.07
Output  | 0.010618   | 0.010618   | 0.010618   |   0.0 |  0.15
Modify  | 0.5296     | 0.5296     | 0.5296     |   0.0 |  7.52
Other   |            | 0.03812    |            |       |  0.54

Nlocal:             96 ave          96 max          96 min
Histogram: 1 0 0 0 0 0 0 0 0 0
Nghost:            526 ave         526 max         526 min
Histogram: 1 0 0 0 0 0 0 0 0 0
Neighs:              0 ave           0 max           0 min
Histogram: 1 0 0 0 0 0 0 0 0 0
FullNghs:         2852 ave        2852 max        2852 min
Histogram: 1 0 0 0 0 0 0 0 0 0

Total # of neighbors = 2852
Ave neighs/atom = 29.708333
Ave special neighs/atom = 0
Neighbor list builds = 3755
Dangerous builds = 0

fix npt1 all npt temp 5000 4000 0.1 iso 0 0 1
run 80000
Per MPI rank memory allocation (min/avg/max) = 8.549 | 8.549 | 8.549 Mbytes
   Step          Temp          E_pair         E_mol          TotEng         Press          Volume    
     80000   4470.5496     -552.15412      0             -497.25705     -24815.041      1452.9687    
     81000   4365.6075     -564.50909      0             -510.90068      16441.329      1439.4599    
     82000   5162.8977     -560.28952      0             -496.89061      8566.7192      1447.4387    
     83000   5184.4809     -561.91971      0             -498.25577      55487.357      1421.3572    
     84000   5275.3429     -555.35416      0             -490.57446     -4170.4316      1435.5273    
     85000   5119.2311     -556.54226      0             -493.67957     -13369.306      1485.779     
     86000   3783.8343     -557.26681      0             -510.80241      41779.502      1391.8847    
     87000   4399.7724     -556.23141      0             -502.20347      36293.211      1377.7619    
     88000   4438.7876     -558.04489      0             -503.53785      16119.782      1472.2821    
     89000   4581.0088     -558.46688      0             -502.2134       21537.742      1439.7714    
     90000   4801.5459     -560.20706      0             -501.24545     -12301.744      1410.7299    
     91000   4140.6128     -560.99453      0             -510.14899     -8870.2975      1456.2203    
     92000   5063.729      -565.94797      0             -503.76682     -4947.8867      1475.8519    
     93000   4608.9398     -568.02248      0             -511.42602     -15271.602      1564.3451    
     94000   5360.7394     -558.97901      0             -493.15066     -1211.4064      1504.7378    
     95000   4831.4254     -570.26828      0             -510.93976      57266.742      1496.6057    
     96000   5465.6942     -572.07495      0             -504.95779      43641.739      1442.4306    
     97000   5487.9749     -575.55436      0             -508.1636      -10928.222      1435.8968    
     98000   4754.4541     -572.46871      0             -514.08538      2237.9568      1448.4901    
     99000   4538.3527     -557.73009      0             -502.00042     -50825.818      1532.7773    
    100000   4844.3953     -567.91949      0             -508.4317       9546.8594      1524.7499    
    101000   4579.0436     -564.71916      0             -508.48981     -32467.711      1587.6283    
    102000   5367.2029     -562.46139      0             -496.55368     -38453.773      1539.8529    
    103000   4544.0118     -570.86595      0             -515.06679      16209.203      1509.3976    
    104000   4465.7807     -561.28924      0             -506.45073     -914.29409      1457.8516    
    105000   4562.3838     -571.43576      0             -515.41099      37826.465      1448.6292    
    106000   4496.382      -573.12002      0             -517.90573      98.542278      1463.2422    
    107000   4331.1536     -569.16178      0             -515.97646     -6151.0352      1582.0204    
    108000   4421.2134     -566.4888       0             -512.19757     -10820.299      1524.5116    
    109000   4678.4509     -562.69254      0             -505.2425      -9445.4794      1539.8784    
    110000   4129.0274     -561.82455      0             -511.12127     -64617.545      1552.6216    
    111000   4485.6961     -575.71054      0             -520.62747      229.7894       1494.542     
    112000   4776.073      -562.22949      0             -503.58068     -61863.556      1562.1814    
    113000   4384.4539     -573.46973      0             -519.62989     -29087.981      1538.2542    
    114000   4818.4342     -560.96474      0             -501.79575     -22793.285      1549.4866    
    115000   4734.7471     -569.13813      0             -510.99679     -18982.893      1511.5854    
    116000   4304.5167     -575.64626      0             -522.78803     -33264.061      1519.0096    
    117000   5192.6453     -574.30046      0             -510.53626     -49415.483      1575.9199    
    118000   5106.7102     -570.3188       0             -507.60986     -17107.168      1533.9438    
    119000   4653.5249     -575.82669      0             -518.68273     -26207.93       1546.7375    
    120000   4112.0126     -575.88519      0             -525.39085     -32786.539      1534.8684    
    121000   4924.4338     -568.11858      0             -507.64794      10553.702      1486.1529    
    122000   4305.4425     -562.08082      0             -509.21122      56000.042      1533.5993    
    123000   4202.9434     -571.76347      0             -520.15253     -14107.365      1517.0572    
    124000   4212.615      -568.96271      0             -517.233        20405.521      1475.7159    
    125000   4374.9877     -572.80307      0             -519.07947      7303.6962      1499.9978    
    126000   4314.7881     -570.81428      0             -517.82992     -9271.9069      1577.7836    
    127000   3848.2344     -568.93951      0             -521.6843      -56292.293      1618.1844    
    128000   4665.708      -570.91512      0             -513.62156      3384.6949      1556.6281    
    129000   4612.9461     -573.34446      0             -516.69881     -26009.901      1520.8862    
    130000   4391.7666     -573.52131      0             -519.59167     -911.58545      1505.9527    
    131000   4119.037      -564.79461      0             -514.21401      6425.7311      1502.3487    
    132000   4300.4605     -578.69463      0             -525.8862       64227.938      1427.0161    
    133000   4886.3425     -574.06494      0             -514.06205     -34719.107      1585.3101    
    134000   4034.3042     -578.53575      0             -528.99565     -14267.262      1526.7115    
    135000   3982.6597     -569.18044      0             -520.27452     -20431.94       1572.3252    
    136000   4266.7754     -572.84102      0             -520.44624     -25133.25       1490.2845    
    137000   3812.6169     -577.6717       0             -530.85386     -446.91428      1479.8497    
    138000   4174.3252     -567.12277      0             -515.86325     -32826.46       1564.567     
    139000   3998.0078     -579.89295      0             -530.79855     -7139.0207      1468.9631    
    140000   4622.3808     -570.07515      0             -513.31364      19323.841      1504.728     
    141000   4618.7662     -566.06576      0             -509.34863      1123.988       1572.3375    
    142000   4082.6742     -564.88099      0             -514.74692      16422.475      1529.6073    
    143000   3878.1726     -570.22583      0             -522.60298      53333.629      1550.2033    
    144000   3705.0259     -560.31883      0             -514.82218      16412.859      1525.7192    
    145000   4693.7257     -564.03643      0             -506.39882      6664.5835      1522.9349    
    146000   3999.5744     -570.6807       0             -521.56708     -27194.685      1500.6643    
    147000   3899.8089     -561.46974      0             -513.5812      -13266.122      1510.1737    
    148000   4059.1833     -572.85838      0             -523.01277     -24400.527      1469.1196    
    149000   4168.9383     -568.67234      0             -517.47897      1880.6218      1467.5654    
    150000   4267.5442     -574.10933      0             -521.70511      15892.699      1425.7402    
    151000   4308.0191     -574.70244      0             -521.8012      -13398.227      1466.7101    
    152000   4523.5289     -567.71733      0             -512.16969     -32730.484      1491.9363    
    153000   3749.3548     -568.89319      0             -522.85219     -31484.183      1531.3809    
    154000   4299.829      -567.71992      0             -514.91925     -18724.201      1500.945     
    155000   3577.895      -573.34305      0             -529.40753      36826.446      1473.4526    
    156000   4338.6615     -567.84634      0             -514.56882     -18112.916      1544.464     
    157000   4005.2111     -575.07879      0             -525.89594     -11549.68       1525.4471    
    158000   4272.4595     -568.98559      0             -516.52101     -22168.622      1456.0602    
    159000   4172.5584     -574.97273      0             -523.7349      -35956.214      1442.6265    
    160000   3877.0123     -567.88471      0             -520.27611     -13384.716      1423.1761    
Loop time of 6.55982 on 1 procs for 80000 steps with 96 atoms

Performance: 1053.688 ns/day, 0.023 hours/ns, 12195.457 timesteps/s, 1.171 Matom-step/s
99.4% CPU use with 1 MPI tasks x no OpenMP threads

MPI task timing breakdown:
Section |  min time  |  avg time  |  max time  |%varavg| %total
---------------------------------------------------------------
Pair    | 5.4461     | 5.4461     | 5.4461     |   0.0 | 83.02
Bond    | 0.0026826  | 0.0026826  | 0.0026826  |   0.0 |  0.04
Neigh   | 0.41978    | 0.41978    | 0.41978    |   0.0 |  6.40
Comm    | 0.20151    | 0.20151    | 0.20151    |   0.0 |  3.07
Output  | 0.010672   | 0.010672   | 0.010672   |   0.0 |  0.16
Modify  | 0.44411    | 0.44411    | 0.44411    |   0.0 |  6.77
Other   |            | 0.03498    |            |       |  0.53

Nlocal:             96 ave          96 max          96 min
Histogram: 1 0 0 0 0 0 0 0 0 0
Nghost:            480 ave         480 max         480 min
Histogram: 1 0 0 0 0 0 0 0 0 0
Neighs:              0 ave           0 max           0 min
Histogram: 1 0 0 0 0 0 0 0 0 0
FullNghs:         2882 ave        2882 max        2882 min
Histogram: 1 0 0 0 0 0 0 0 0 0

Total # of neighbors = 2882
Ave neighs/atom = 30.020833
Ave special neighs/atom = 0
Neighbor list builds = 3330
Dangerous builds = 0

fix npt1 all npt temp 4000 4000 0.1 iso 0 0 1
run 80000
Per MPI rank memory allocation (min/avg/max) = 8.549 | 8.549 | 8.549 Mbytes
   Step          Temp          E_pair         E_mol          TotEng         Press          Volume    
    160000   3877.0123     -567.88471      0             -520.27611     -13384.716      1423.1761    
    161000   3492.355      -577.86811      0             -534.98299     -7096.4376      1404.3892    
    162000   4509.6728     -578.47004      0             -523.09255     -15683.794      1433.2772    
    163000   4709.5035     -579.04052      0             -521.20917      32700.72       1427.7702    
    164000   3474.4457     -573.19243      0             -530.52724      28823.662      1439.1154    
    165000   4479.3096     -567.83183      0             -512.82719     -47283.928      1587.6932    
    166000   4184.2364     -574.63631      0             -523.25509     -52806.134      1581.1694    
    167000   3780.0762     -571.74139      0             -525.32314     -51647.598      1617.5142    
    168000   4568.7575     -570.9613       0             -514.85827     -18781.914      1630.2425    
    169000   3872.9454     -561.60473      0             -514.04607      8218.0414      1658.8923    
    170000   3972.9269     -573.51051      0             -524.72411     -25651.79       1606.6612    
    171000   3345.4697     -578.25128      0             -537.16988     -12788.947      1563.0198    
    172000   3794.4884     -572.90899      0             -526.31376     -5454.1227      1542.7655    
    173000   3626.387      -577.32097      0             -532.78998     -50314.663      1671.8562    
    174000   3824.8419     -568.05787      0             -521.0899      -24916.49       1654.8256    
    175000   3278.5557     -577.18937      0             -536.92965      1424.2967      1563.1352    
    176000   4439.412      -576.00924      0             -521.49453     -37421.093      1573.538     
    177000   4034.9772     -575.42988      0             -525.88151     -9722.4771      1608.3607    
    178000   4173.1495     -581.32137      0             -530.07629     -391.67937      1600.7137    
    179000   4424.7206     -574.99699      0             -520.66269      8613.7953      1616.4825    
    180000   4492.8683     -572.05839      0             -516.88725      10244.52       1610.8393    
    181000   3541.9438     -571.7932       0             -528.29914     -20148.433      1503.8284    
    182000   4171.8921     -574.87049      0             -523.64085      20746.548      1468.2958    
    183000   3669.902      -577.71589      0             -532.65054     -6580.3183      1443.3161    
    184000   4272.1468     -574.69905      0             -522.23831      71045.706      1464.6983    
    185000   3935.4536     -565.66859      0             -517.34235      4070.3439      1509.8875    
    186000   3943.4487     -574.01212      0             -525.5877       63696.596      1545.9269    
    187000   3609.2394     -575.74284      0             -531.42241     -21569.484      1594.3761    
    188000   4412.7862     -568.05584      0             -513.86809     -34190.084      1693.1719    
    189000   4507.1964     -567.96443      0             -512.61735     -5210.8298      1669.9166    
    190000   4146.4909     -572.08195      0             -521.16423     -37219.624      1526.972     
    191000   4259.42       -559.18104      0             -506.87658     -41190.02       1476.746     
    192000   3669.0797     -569.58397      0             -524.52872     -6113.114       1512.892     
    193000   4322.1147     -567.72345      0             -514.64912     -44151.898      1516.6929    
    194000   3558.2664     -573.70791      0             -530.01342     -24133.84       1508.9906    
    195000   4259.1591     -568.56676      0             -516.26551     -30007.525      1504.2669    
    196000   3435.644      -571.7311       0             -529.54238     -32999.284      1484.7603    
    197000   3683.8686     -568.46269      0             -523.22584      22588.695      1481.8385    
    198000   4079.4858     -573.30403      0             -523.20911      4829.5735      1447.0978    
    199000   3891.5081     -572.37921      0             -524.59261      18784.057      1457.9319    
    200000   4211.256      -570.09776      0             -518.38474      3952.7776      1464.5893    
    201000   3913.733      -573.44627      0             -525.38675      14406.033      1467.266     
    202000   4126.3415     -575.93033      0             -525.26004      17072.966      1506.0422    
    203000   3442.4892     -573.26083      0             -530.98805     -24441.572      1496.0195    
    204000   4010.2071     -575.42498      0             -526.18078     -13951.743      1462.7337    
    205000   3903.5926     -573.44087      0             -525.50587      23571.276      1427.0262    
    206000   3614.721      -575.73867      0             -531.35094      10276.38       1376.3156    
    207000   3748.3203     -565.4182       0             -519.3899       24652.84       1483.8942    
    208000   4534.5182     -568.15202      0             -512.46944      28401.523      1495.7598    
    209000   3846.2436     -568.05612      0             -520.82535      2898.658       1454.8763    
    210000   3936.4922     -562.71201      0             -514.37301     -49167.435      1496.7687    
    211000   3641.438      -572.04374      0             -527.32793     -2572.0585      1539.0451    
    212000   4456.6456     -578.0378       0             -523.31147     -20141.987      1454.4157    
    213000   4264.2793     -577.14571      0             -524.78158     -1064.6554      1472.0027    
    214000   4171.148      -574.4413       0             -523.2208      -26893.01       1472.4122    
    215000   4139.4459     -582.25221      0             -531.421       -22545.024      1525.9405    
    216000   3435.7309     -574.95881      0             -532.76902      9919.6608      1489.9214    
    217000   3964.5395     -567.6316       0             -518.94819      4821.2442      1480.6946    
    218000   3216.88       -582.55479      0             -543.05243      2937.6573      1476.7363    
    219000   4316.7869     -576.27754      0             -523.26864     -19449.568      1522.2567    
    220000   4395.1643     -574.35802      0             -520.38666      48009.736      1571.4553    
    221000   3888.1322     -570.39256      0             -522.64741      15702.966      1602.5266    
    222000   3856.3049     -580.9075       0             -533.55318     -8760.7983      1580.8546    
    223000   4172.3796     -581.53963      0             -530.304        14050.103      1538.8762    
    224000   3597.6341     -571.86731      0             -527.6894      -34436.157      1602.1247    
    225000   4802.7168     -574.35899      0             -515.38301      8544.2899      1591.1423    
    226000   4048.3241     -573.41979      0             -523.70753      13028.99       1568.8908    
    227000   4275.5203     -581.89875      0             -529.39659      7196.7879      1494.4083    
    228000   4182.4272     -574.29677      0             -522.93776      21699.927      1519.2603    
    229000   3881.035      -570.90207      0             -523.24407     -1595.0284      1508.2656    
    230000   3695.974      -576.15304      0             -530.76754     -19907.682      1516.3055    
    231000   4485.2194     -576.90142      0             -521.82421     -32039.832      1551.5902    
    232000   4173.3109     -574.89722      0             -523.65016      5230.1935      1523.4076    
    233000   4189.0538     -578.79242      0             -527.35204      41294.932      1484.2901    
    234000   4460.6093     -584.45333      0             -529.67832      15177.951      1452.7092    
    235000   4313.6138     -577.73862      0             -524.76868      20696.323      1543.6236    
    236000   4279.1135     -572.95137      0             -520.40508      13440.409      1525.6029    
    237000   4418.222      -576.84223      0             -522.58773     -538.30528      1591.8765    
    238000   3994.4198     -574.50641      0             -525.45608     -50415.64       1645.917     
    239000   4264.5638     -566.11583      0             -513.74821      7498.199       1658.7552    
    240000   4217.1847     -571.93105      0             -520.14523      7532.5615      1591.126     
Loop time of 6.48961 on 1 procs for 80000 steps with 96 atoms

Performance: 1065.088 ns/day, 0.023 hours/ns, 12327.406 timesteps/s, 1.183 Matom-step/s
99.2% CPU use with 1 MPI tasks x no OpenMP threads

MPI task timing breakdown:
Section |  min time  |  avg time  |  max time  |%varavg| %total
---------------------------------------------------------------
Pair    | 5.4158     | 5.4158     | 5.4158     |   0.0 | 83.45
Bond    | 0.0027292  | 0.0027292  | 0.0027292  |   0.0 |  0.04
Neigh   | 0.38123    | 0.38123    | 0.38123    |   0.0 |  5.87
Comm    | 0.20039    | 0.20039    | 0.20039    |   0.0 |  3.09
Output  | 0.01045    | 0.01045    | 0.01045    |   0.0 |  0.16
Modify  | 0.44459    | 0.44459    | 0.44459    |   0.0 |  6.85
Other   |            | 0.03442    |            |       |  0.53

Nlocal:             96 ave          96 max          96 min
Histogram: 1 0 0 0 0 0 0 0 0 0
Nghost:            514 ave         514 max         514 min
Histogram: 1 0 0 0 0 0 0 0 0 0
Neighs:              0 ave           0 max           0 min
Histogram: 1 0 0 0 0 0 0 0 0 0
FullNghs:         2670 ave        2670 max        2670 min
Histogram: 1 0 0 0 0 0 0 0 0 0

Total # of neighbors = 2670
Ave neighs/atom = 27.8125
Ave special neighs/atom = 0
Neighbor list builds = 3082
Dangerous builds = 0

fix npt1 all npt temp 4000 3000 0.1 iso 0 0  1
run 80000
Per MPI rank memory allocation (min/avg/max) = 8.549 | 8.549 | 8.549 Mbytes
   Step          Temp          E_pair         E_mol          TotEng         Press          Volume    
    240000   4217.1847     -571.93105      0             -520.14523      7532.5615      1591.126     
    241000   4058.3957     -579.90131      0             -530.06537      13900.977      1562.5816    
    242000   4023.2021     -575.62374      0             -526.21997     -7939.6214      1571.7849    
    243000   4227.0176     -575.19441      0             -523.28784     -17669.184      1573.9402    
    244000   3616.8113     -571.05455      0             -526.64114      13733.943      1517.8787    
    245000   3763.8326     -579.36403      0             -533.14525      15640.312      1548.2415    
    246000   4089.9214     -578.99396      0             -528.77089     -2068.0113      1507.059     
    247000   3943.1713     -573.18853      0             -524.76752      35168.031      1538.4139    
    248000   4410.6266     -573.81584      0             -519.65461      55327.967      1517.3826    
    249000   3860.9536     -582.82138      0             -535.40997      38861.932      1506.2768    
    250000   4120.5885     -575.13581      0             -524.53616     -35206.125      1505.4281    
    251000   3653.2338     -579.42879      0             -534.56812      6302.7591      1488.5591    
    252000   3387.9312     -573.45345      0             -531.85063     -23238.746      1546.79      
    253000   3883.1434     -580.88903      0             -533.20514      6405.9047      1569.2334    
    254000   4107.1342     -583.71362      0             -533.27919     -2924.7133      1579.8352    
    255000   4129.0883     -577.8421       0             -527.13808     -9774.8498      1607.138     
    256000   3801.7418     -577.68491      0             -531.00061      11361.194      1560.0121    
    257000   3926.9757     -578.69019      0             -530.46805     -23571.82       1543.4522    
    258000   3149.7462     -582.99763      0             -544.31964      21160.75       1516.4601    
    259000   3610.2901     -584.25749      0             -539.92416      24373.045      1507.7299    
    260000   4498.7501     -575.64879      0             -520.40543     -3257.906       1530.8615    
    261000   3943.3735     -583.81463      0             -535.39113      7873.0886      1490.7073    
    262000   3464.8103     -582.66869      0             -540.12181      21551.287      1515.1538    
    263000   4082.3825     -573.94696      0             -523.81647      9297.9144      1536.496     
    264000   3723.4294     -584.63448      0             -538.91184      7898.5515      1518.6147    
    265000   2999.4138     -574.07684      0             -537.24489     -15237.87       1579.1656    
    266000   4481.3552     -589.3416       0             -534.31184     -17604.073      1518.7226    
    267000   3661.0394     -582.09548      0             -537.13897     -11685.931      1536.7872    
    268000   3710.6889     -584.15925      0             -538.59305     -13058.337      1514.1566    
    269000   4284.8805     -587.54786      0             -534.93076      17509.419      1520.8068    
    270000   3561.1811     -588.56477      0             -544.83449     -2216.8172      1526.3764    
    271000   4097.6122     -583.6361       0             -533.3186       20427.373      1529.159     
    272000   3583.8635     -581.3766       0             -537.36778     -34028.84       1542.957     
    273000   3304.2759     -581.10164      0             -540.52608      11101.827      1470.0941    
    274000   3518.6622     -593.50337      0             -550.29521     -19798.389      1534.6708    
    275000   3555.6226     -588.75016      0             -545.08813      32388.032      1549.3986    
    276000   3760.6359     -572.57171      0             -526.39218      30295.178      1472.6645    
    277000   3886.463      -589.86417      0             -542.13951      39758.936      1504.6221    
    278000   3280.6284     -588.22831      0             -547.94313     -18048.938      1573.9484    
    279000   3691.8498     -581.86116      0             -536.5263      -7712.7766      1565.8911    
    280000   3342.8527     -584.4718       0             -543.42253      1646.1614      1545.2674    
    281000   3445.1003     -585.69962      0             -543.39477      37168.081      1564.6286    
    282000   2786.4344     -587.19488      0             -552.97826     -6319.9075      1586.9799    
    283000   3521.4468     -584.81877      0             -541.57642      8875.078       1564.9454    
    284000   3652.5946     -586.06759      0             -541.21478      17189.111      1570.6445    
    285000   3034.2388     -587.57726      0             -550.31768     -6652.5217      1525.5791    
    286000   4000.4931     -585.33953      0             -536.21462     -7979.6198      1480.4875    
    287000   3172.0522     -587.15339      0             -548.2015       18833.266      1507.049     
    288000   3115.82       -592.57013      0             -554.30875      9854.3964      1529.6298    
    289000   3501.7105     -585.18896      0             -542.18896      3667.9017      1534.8975    
    290000   3372.1159     -587.06042      0             -545.6518       28402.836      1551.7773    
    291000   3775.7299     -584.65433      0             -538.28945      6637.0176      1627.7385    
    292000   3353.3766     -582.50586      0             -541.32736      2733.7264      1615.3432    
    293000   3485.0426     -592.71814      0             -549.92281      3382.1037      1566.5675    
    294000   3017.0084     -587.0692       0             -550.0212      -41815.534      1590.4992    
    295000   3448.8918     -594.39088      0             -552.03948      8196.2898      1537.9601    
    296000   3362.566      -593.80489      0             -552.51354     -10997.483      1564.6814    
    297000   3837.9844     -589.19412      0             -542.06477     -8415.6808      1555.5039    
    298000   3142.7471     -595.47096      0             -556.87893     -4038.6723      1595.0053    
    299000   3724.0219     -589.7779       0             -544.04798      15535.284      1556.742     
    300000   3068.9422     -592.93345      0             -555.24772     -27380.526      1530.8506    
    301000   3168.4357     -590.803        0             -551.89552     -12951.059      1552.0103    
    302000   3067.1167     -595.402        0             -557.73868     -12205.658      1536.5759    
    303000   3130.254      -590.61759      0             -552.17896      20623.24       1512.9763    
    304000   3477.1419     -594.96452      0             -552.26621     -12833.397      1540.2479    
    305000   2926.1817     -592.83808      0             -556.90541     -11045.734      1530.4954    
    306000   3226.8704     -594.2207       0             -554.59565     -15811.579      1510.3412    
    307000   3087.1026     -592.86036      0             -554.95163      12007.194      1492.1462    
    308000   3082.9581     -590.03253      0             -552.17469      20677.536      1507.2711    
    309000   3360.6873     -589.08908      0             -547.8208      -30881.751      1564.2464    
    310000   3238.4761     -593.48263      0             -553.71507     -41513.646      1560.3883    
    311000   3004.7956     -597.47411      0             -560.57608      20785.493      1506.0333    
    312000   3691.0366     -597.25528      0             -551.93041     -5076.6915      1519.9329    
    313000   3586.265      -593.1701       0             -549.13179     -1873.8307      1518.9592    
    314000   2855.9292     -592.10881      0             -557.03882     -10965.906      1540.9023    
    315000   3374.8813     -589.40253      0             -547.95996      15803.036      1553.7025    
    316000   3253.0138     -593.84751      0             -553.90143     -24160.656      1543.9668    
    317000   3029.9977     -594.76747      0             -557.55996      5037.5933      1502.1562    
    318000   3146.4752     -593.14155      0             -554.50374      4378.6268      1470.7076    
    319000   3510.5185     -599.58301      0             -556.47485      18049.603      1499.7798    
    320000   2790.4645     -597.65682      0             -563.39071      10854.183      1545.4546    
Loop time of 6.4657 on 1 procs for 80000 steps with 96 atoms

Performance: 1069.026 ns/day, 0.022 hours/ns, 12372.983 timesteps/s, 1.188 Matom-step/s
99.0% CPU use with 1 MPI tasks x no OpenMP threads

MPI task timing breakdown:
Section |  min time  |  avg time  |  max time  |%varavg| %total
---------------------------------------------------------------
Pair    | 5.3713     | 5.3713     | 5.3713     |   0.0 | 83.07
Bond    | 0.0029479  | 0.0029479  | 0.0029479  |   0.0 |  0.05
Neigh   | 0.35636    | 0.35636    | 0.35636    |   0.0 |  5.51
Comm    | 0.20818    | 0.20818    | 0.20818    |   0.0 |  3.22
Output  | 0.015005   | 0.015005   | 0.015005   |   0.0 |  0.23
Modify  | 0.47459    | 0.47459    | 0.47459    |   0.0 |  7.34
Other   |            | 0.03728    |            |       |  0.58

Nlocal:             96 ave          96 max          96 min
Histogram: 1 0 0 0 0 0 0 0 0 0
Nghost:            490 ave         490 max         490 min
Histogram: 1 0 0 0 0 0 0 0 0 0
Neighs:              0 ave           0 max           0 min
Histogram: 1 0 0 0 0 0 0 0 0 0
FullNghs:         2678 ave        2678 max        2678 min
Histogram: 1 0 0 0 0 0 0 0 0 0

Total # of neighbors = 2678
Ave neighs/atom = 27.895833
Ave special neighs/atom = 0
Neighbor list builds = 2825
Dangerous builds = 0

fix npt1 all npt temp 3000 3000 0.1 iso 0 0 1
run 80000
Per MPI rank memory allocation (min/avg/max) = 8.549 | 8.549 | 8.549 Mbytes
   Step          Temp          E_pair         E_mol          TotEng         Press          Volume    
    320000   2790.4645     -597.65682      0             -563.39071      10854.183      1545.4546    
    321000   3357.4607     -598.5176       0             -557.28894      54231.775      1487.9247    
    322000   3063.2674     -596.94445      0             -559.3284       30182.307      1474.4551    
    323000   3025.3885     -587.86381      0             -550.7129      -15691.418      1554.5128    
    324000   2767.0486     -591.85822      0             -557.87966      10737.129      1525.6319    
    325000   2799.8687     -595.8378       0             -561.45621      5828.9988      1491.3329    
    326000   3625.8511     -598.78168      0             -554.25727     -10794.241      1558.9637    
    327000   2962.9453     -593.77473      0             -557.39061     -3815.201       1544.2467    
    328000   3226.8242     -590.19569      0             -550.57121     -6675.7727      1523.2254    
    329000   2913.1087     -593.79906      0             -558.02692     -7241.9955      1550.7955    
    330000   3309.2669     -595.01024      0             -554.37339      13297.598      1548.8106    
    331000   3121.864      -595.73204      0             -557.39644      9528.5638      1547.0622    
    332000   3682.7432     -594.47593      0             -549.25289     -3204.8733      1520.933     
    333000   3130.3724     -589.13646      0             -550.69638      139.89311      1519.3888    
    334000   3006.9368     -596.13271      0             -559.20838      21679.843      1449.6077    
    335000   2867.7914     -596.92551      0             -561.70985     -12723.545      1518.7967    
    336000   2971.1349     -593.14677      0             -556.66208     -57059.756      1617.9766    
    337000   3140.5356     -592.86564      0             -554.30076      14140.633      1488.8207    
    338000   2551.0935     -590.67036      0             -559.34367      4324.2921      1514.9744    
    339000   3312.8191     -587.81962      0             -547.13915      8490.997       1500.8906    
    340000   3098.3775     -593.63326      0             -555.58607     -22020.305      1500.7613    
    341000   2778.9044     -594.96155      0             -560.8374      -6502.6439      1524.7825    
    342000   3004.7648     -590.48227      0             -553.58461     -37035.483      1546.2429    
    343000   2733.3322     -595.77062      0             -562.20608     -34195.755      1570.2547    
    344000   3296.5298     -592.45536      0             -551.97492     -5242.7633      1537.7297    
    345000   3237.5257     -593.84634      0             -554.09045      22715.949      1516.092     
    346000   3043.5363     -594.65525      0             -557.2815       11894.457      1513.127     
    347000   3374.6683     -592.96101      0             -551.52105     -23867.015      1549.7218    
    348000   2939.8694     -592.89093      0             -556.79017     -9511.18        1533.3153    
    349000   2880.1445     -593.70171      0             -558.33436     -29210.902      1565.3915    
    350000   3529.8834     -594.80235      0             -551.4564       15220.093      1502.0777    
    351000   2668.347      -597.42546      0             -564.65892      27885.465      1486.2899    
    352000   3086.6111     -591.85855      0             -553.95584      35855.858      1499.5232    
    353000   3274.9452     -594.11718      0             -553.9018      -22346.66       1522.1306    
    354000   2926.8561     -597.38231      0             -561.44136      9206.8386      1497.3024    
    355000   3050.8035     -593.34963      0             -555.88663      747.92003      1505.9942    
    356000   2730.6942     -595.64724      0             -562.1151       4869.4109      1479.5335    
    357000   3004.4576     -589.59055      0             -552.69668     -23783.2        1559.5408    
    358000   2579.2285     -590.51279      0             -558.8406      -44342.704      1595.8226    
    359000   3294.8835     -596.52758      0             -556.06736      10460.369      1497.1446    
    360000   3073.2334     -597.65801      0             -559.91959      10215.333      1490.2705    
    361000   3335.8138     -595.54045      0             -554.57761     -8216.2913      1553.6896    
    362000   2982.8987     -596.76866      0             -560.13952     -19258.964      1550.3771    
    363000   3163.1262     -591.19643      0             -552.35415      7311.0176      1520.1888    
    364000   2632.5088     -594.83817      0             -562.51172     -35931.946      1593.5112    
    365000   2744.2517     -594.58088      0             -560.88225     -6424.6815      1545.4112    
    366000   3158.0407     -593.83834      0             -555.05851      8967.4322      1514.882     
    367000   2845.6543     -597.41829      0             -562.47447      12631.978      1518.5642    
    368000   3166.1796     -592.20596      0             -553.32618     -24784.125      1590.7036    
    369000   3009.0103     -591.71236      0             -554.76258      3461.448       1534.697     
    370000   3200.8664     -593.24134      0             -553.93561      15882.088      1499.7836    
    371000   3327.7375     -597.41917      0             -556.55551     -17366.014      1532.504     
    372000   2572.8884     -594.94392      0             -563.34959      18756.629      1543.9279    
    373000   3411.3805     -584.39685      0             -542.50608     -22269.513      1541.1085    
    374000   2906.3118     -594.51776      0             -558.82908     -13523.858      1540.6688    
    375000   3349.14       -593.67472      0             -552.54824      23872.958      1523.1531    
    376000   2897.3148     -594.65292      0             -559.07472     -9058.8018      1555.5903    
    377000   3072.0615     -591.57557      0             -553.85153      11296.592      1551.6952    
    378000   3059.9597     -589.77908      0             -552.20365     -15842.191      1566.2595    
    379000   2780.2151     -589.55855      0             -555.4183      -12223.876      1606.295     
    380000   2939.4587     -597.9476       0             -561.85188     -32949.951      1606.1541    
    381000   2852.4871     -595.74055      0             -560.71283     -6286.224       1521.7909    
    382000   3116.7046     -593.22236      0             -554.95012      19183.34       1532.8699    
    383000   2478.0446     -594.5759       0             -564.14622     -4301.7407      1584.9406    
    384000   2983.5333     -590.53585      0             -553.89892     -24027.572      1601.8971    
    385000   3116.4306     -593.16422      0             -554.89535      4016.1021      1545.308     
    386000   2733.6998     -592.88507      0             -559.31602      5058.6339      1542.5549    
    387000   3461.4396     -599.78574      0             -557.28025     -20945.489      1610.9031    
    388000   2957.2305     -595.52787      0             -559.21393      10594.299      1599.2143    
    389000   3019.9256     -596.05548      0             -558.97166     -886.57454      1509.605     
    390000   3099.0386     -598.77786      0             -560.72255      7666.5867      1521.8313    
    391000   3131.7311     -590.45428      0             -551.99751     -1674.3941      1510.7569    
    392000   3006.9523     -590.1721       0             -553.24759      14290.52       1517.3825    
    393000   2843.9146     -596.8247       0             -561.90224      8902.2007      1547.6186    
    394000   2997.2115     -588.69324      0             -551.88834     -17537.405      1530.3568    
    395000   2964.3981     -595.44766      0             -559.0457       22158.964      1479.3276    
    396000   3367.6132     -589.71398      0             -548.36065     -26413.593      1558.0784    
    397000   2725.4389     -591.30319      0             -557.83558      8366.5796      1590.5594    
    398000   2867.3322     -590.24827      0             -555.03825      1387.2477      1586.1025    
    399000   3327.537      -592.78853      0             -551.92733      2566.6169      1548.5611    
    400000   2822.2998     -590.71797      0             -556.06093     -18204.053      1588.131     
Loop time of 6.25263 on 1 procs for 80000 steps with 96 atoms

Performance: 1105.455 ns/day, 0.022 hours/ns, 12794.620 timesteps/s, 1.228 Matom-step/s
99.2% CPU use with 1 MPI tasks x no OpenMP threads

MPI task timing breakdown:
Section |  min time  |  avg time  |  max time  |%varavg| %total
---------------------------------------------------------------
Pair    | 5.2318     | 5.2318     | 5.2318     |   0.0 | 83.67
Bond    | 0.0027635  | 0.0027635  | 0.0027635  |   0.0 |  0.04
Neigh   | 0.31707    | 0.31707    | 0.31707    |   0.0 |  5.07
Comm    | 0.20185    | 0.20185    | 0.20185    |   0.0 |  3.23
Output  | 0.01257    | 0.01257    | 0.01257    |   0.0 |  0.20
Modify  | 0.45226    | 0.45226    | 0.45226    |   0.0 |  7.23
Other   |            | 0.03432    |            |       |  0.55

Nlocal:             96 ave          96 max          96 min
Histogram: 1 0 0 0 0 0 0 0 0 0
Nghost:            488 ave         488 max         488 min
Histogram: 1 0 0 0 0 0 0 0 0 0
Neighs:              0 ave           0 max           0 min
Histogram: 1 0 0 0 0 0 0 0 0 0
FullNghs:         2622 ave        2622 max        2622 min
Histogram: 1 0 0 0 0 0 0 0 0 0

Total # of neighbors = 2622
Ave neighs/atom = 27.3125
Ave special neighs/atom = 0
Neighbor list builds = 2550
Dangerous builds = 0

fix npt1 all npt temp 3000 2000 0.1 iso 0 0 1
run 80000
Per MPI rank memory allocation (min/avg/max) = 8.549 | 8.549 | 8.549 Mbytes
   Step          Temp          E_pair         E_mol          TotEng         Press          Volume    
    400000   2822.2998     -590.71797      0             -556.06093     -18204.053      1588.131     
    401000   2724.9276     -589.04664      0             -555.58531     -38819.737      1601.0653    
    402000   3204.2491     -593.40128      0             -554.05402     -26262.036      1588.6558    
    403000   3346.0594     -594.64106      0             -553.5524       33217.877      1486.2497    
    404000   2459.561      -591.18911      0             -560.98641      1492.3081      1505.5562    
    405000   3127.0942     -591.42221      0             -553.02239      18956.794      1569.8481    
    406000   2658.5972     -596.0766       0             -563.42979     -12153.917      1567.7672    
    407000   2883.5131     -594.13866      0             -558.72994     -20747.706      1599.87      
    408000   2999.2268     -597.22535      0             -560.39571     -40719.69       1644.4357    
    409000   3055.0516     -591.48467      0             -553.96951      17611.636      1583.7216    
    410000   2632.7058     -591.60635      0             -559.27748      10602.071      1501.0781    
    411000   2663.0713     -587.6256       0             -554.92385     -31033.245      1613.6571    
    412000   2887.9403     -597.69887      0             -562.23579     -48088.529      1621.6652    
    413000   3035.9452     -591.18511      0             -553.90457     -18548.428      1570.8053    
    414000   2782.4711     -594.9718       0             -560.80385      4040.2498      1561.4805    
    415000   3049.267      -594.49598      0             -557.05186     -6837.9526      1510.0285    
    416000   2847.1405     -594.63295      0             -559.67088     -32949.065      1578.1431    
    417000   2254.0598     -595.35201      0             -567.6728      -21853.601      1613.8085    
    418000   2800.5929     -598.66109      0             -564.27061     -7437.4228      1546.9926    
    419000   2947.5863     -597.33523      0             -561.13971      11906.043      1516.5908    
    420000   2798.1602     -601.47996      0             -567.11935     -2529.702       1543.1012    
    421000   2618.8144     -598.01863      0             -565.86034     -5586.6301      1559.44      
    422000   2865.098      -601.93678      0             -566.75419      14091.632      1534.0298    
    423000   3019.6189     -592.60937      0             -555.52931      24073.135      1492.0372    
    424000   2596.6519     -593.49673      0             -561.61058     -36243.959      1570.2925    
    425000   2301.5156     -596.63695      0             -568.375       -13791.78       1560.0275    
    426000   2542.7403     -593.67438      0             -562.45026     -1398.7198      1486.7771    
    427000   2304.4522     -597.97032      0             -569.67231      9871.8761      1519.9037    
    428000   2525.2693     -594.09477      0             -563.08518     -42742.778      1603.0416    
    429000   2089.2746     -593.5036       0             -567.8479      -3546.8489      1552.8911    
    430000   2933.2896     -597.5838       0             -561.56384     -5148.7757      1507.4228    
    431000   2436.7903     -598.37221      0             -568.44912     -15399.19       1554.0038    
    432000   2523.1354     -594.42061      0             -563.43723     -12516.609      1570.0436    
    433000   2446.3498     -602.64024      0             -572.59976      21911.374      1504.7038    
    434000   2789.7437     -601.10421      0             -566.84695      15657.016      1511.5996    
    435000   2726.056      -592.92632      0             -559.45113     -9510.2453      1541.5495    
    436000   2706.3562     -600.65103      0             -567.41775      4623.977       1553.2752    
    437000   2846.8682     -603.30332      0             -568.34459     -6354.5044      1567.9127    
    438000   2746.1103     -598.01802      0             -564.29657     -14134.793      1562.9605    
    439000   2547.8975     -599.38541      0             -568.09796      14021.453      1524.3545    
    440000   2691.6998     -594.85997      0             -561.80666     -21364.975      1569.5946    
    441000   2440.1105     -599.10028      0             -569.13642     -8046.9485      1587.0515    
    442000   2452.2648     -597.56658      0             -567.45347     -22323.837      1560.723     
    443000   2439.6197     -604.53472      0             -574.57688      28018.697      1520.263     
    444000   2411.7703     -593.75551      0             -564.13966     -17984.05       1586.9459    
    445000   2399.7267     -601.52045      0             -572.0525      -29072.522      1602.1359    
    446000   2161.2413     -596.44809      0             -569.90867      9744.8231      1580.8492    
    447000   2708.1909     -599.78334      0             -566.52753      2500.7417      1509.9927    
    448000   2310.4183     -600.91068      0             -572.5394       26890.318      1507.3011    
    449000   2445.0009     -598.73492      0             -568.711       -11802.862      1549.1857    
    450000   2564.9993     -598.53832      0             -567.04086     -145.61139      1559.2708    
    451000   2524.5122     -600.20406      0             -569.20377     -23521.651      1588.3112    
    452000   2403.3964     -598.49935      0             -568.98633      14237.941      1519.5347    
    453000   2588.1279     -603.26021      0             -571.47874      2302.0985      1570.48      
    454000   2238.0717     -599.98013      0             -572.49725     -21819.776      1599.5182    
    455000   1949.0012     -604.53567      0             -580.60249     -5949.6454      1547.9428    
    456000   2046.9521     -601.96513      0             -576.82915      27851.71       1518.0294    
    457000   1994.3847     -601.52704      0             -577.03656     -25743.697      1536.3031    
    458000   2090.8531     -603.34121      0             -577.66613      6857.0181      1550.8872    
    459000   2424.1529     -601.09136      0             -571.32346      276.39311      1550.6615    
    460000   2320.7612     -598.93249      0             -570.43421      14698.388      1560.3999    
    461000   2148.6112     -601.94234      0             -575.55801      1421.1895      1543.7006    
    462000   1987.0438     -604.49983      0             -580.0995      -1800.0371      1528.4445    
    463000   2095.6636     -604.60064      0             -578.86649     -1029.4723      1527.7963    
    464000   2719.5724     -606.63485      0             -573.23928      1260.2978      1514.3651    
    465000   2034.6245     -602.43936      0             -577.45475     -26954.363      1519.1489    
    466000   2235.6163     -606.41783      0             -578.9651      -15349.173      1559.4649    
    467000   2248.1674     -607.65036      0             -580.0435      -7983.1416      1509.9576    
    468000   2134.0411     -602.32099      0             -576.11558      16002.477      1497.0029    
    469000   1613.7436     -604.34964      0             -584.53334     -24425.72       1545.2228    
    470000   2013.3592     -602.27075      0             -577.54728     -5398.366       1541.4754    
    471000   2123.9676     -607.86809      0             -581.78637     -3284.9116      1500.7322    
    472000   2303.8614     -608.71389      0             -580.42313      14979.531      1523.6236    
    473000   2120.443      -601.18273      0             -575.1443      -4292.5607      1560.5315    
    474000   2186.9948     -604.33406      0             -577.47839     -10837.133      1524.974     
    475000   1742.178      -609.4198       0             -588.02636     -1357.4296      1501.5381    
    476000   2138.0657     -606.6865       0             -580.43167     -24270.386      1531.1911    
    477000   2191.1842     -602.04897      0             -575.14186     -18495.024      1546.4547    
    478000   2096.3685     -605.86053      0             -580.11772     -5568.0306      1546.938     
    479000   1794.3191     -607.22779      0             -585.19407      23061.547      1474.3362    
    480000   1828.3308     -607.31104      0             -584.85966     -19321.388      1509.6021    
Loop time of 6.0522 on 1 procs for 80000 steps with 96 atoms

Performance: 1142.064 ns/day, 0.021 hours/ns, 13218.336 timesteps/s, 1.269 Matom-step/s
99.1% CPU use with 1 MPI tasks x no OpenMP threads

MPI task timing breakdown:
Section |  min time  |  avg time  |  max time  |%varavg| %total
---------------------------------------------------------------
Pair    | 5.0999     | 5.0999     | 5.0999     |   0.0 | 84.27
Bond    | 0.0025559  | 0.0025559  | 0.0025559  |   0.0 |  0.04
Neigh   | 0.27343    | 0.27343    | 0.27343    |   0.0 |  4.52
Comm    | 0.19597    | 0.19597    | 0.19597    |   0.0 |  3.24
Output  | 0.011078   | 0.011078   | 0.011078   |   0.0 |  0.18
Modify  | 0.43744    | 0.43744    | 0.43744    |   0.0 |  7.23
Other   |            | 0.03178    |            |       |  0.53

Nlocal:             96 ave          96 max          96 min
Histogram: 1 0 0 0 0 0 0 0 0 0
Nghost:            512 ave         512 max         512 min
Histogram: 1 0 0 0 0 0 0 0 0 0
Neighs:              0 ave           0 max           0 min
Histogram: 1 0 0 0 0 0 0 0 0 0
FullNghs:         2694 ave        2694 max        2694 min
Histogram: 1 0 0 0 0 0 0 0 0 0

Total # of neighbors = 2694
Ave neighs/atom = 28.0625
Ave special neighs/atom = 0
Neighbor list builds = 2226
Dangerous builds = 0

fix npt1 all npt temp 2000 2000 0.1 iso 0 0 1
run 80000
Per MPI rank memory allocation (min/avg/max) = 8.549 | 8.549 | 8.549 Mbytes
   Step          Temp          E_pair         E_mol          TotEng         Press          Volume    
    480000   1828.3308     -607.31104      0             -584.85966     -19321.388      1509.6021    
    481000   2422.8895     -607.38611      0             -577.63372     -2829.8797      1559.5531    
    482000   2066.2432     -607.49658      0             -582.12371      27191.479      1496.8131    
    483000   1940.5425     -608.5166       0             -584.6873       25904.156      1517.2791    
    484000   2064.6138     -605.83956      0             -580.4867       1179.1332      1478.5459    
    485000   1917.0156     -609.78626      0             -586.24585      5142.5208      1508.84      
    486000   1912.146      -605.106        0             -581.62539     -21631.996      1556.3228    
    487000   1780.4623     -605.91536      0             -584.05179     -18624.942      1495.9927    
    488000   2172.1348     -607.37187      0             -580.69867     -2506.7869      1548.2935    
    489000   2233.1896     -607.50522      0             -580.08229     -7576.8686      1505.0673    
    490000   1745.6107     -607.10889      0             -585.67329      3335.8093      1529.9463    
    491000   1894.377      -604.59321      0             -581.3308      -34208.702      1555.8819    
    492000   1659.081      -609.51875      0             -589.14571      24787.726      1492.8486    
    493000   1858.7727     -604.82568      0             -582.00049     -16885.278      1533.3527    
    494000   2272.462      -610.8905       0             -582.98532      12680.26       1495.9827    
    495000   2428.8376     -610.15198      0             -580.32655      25130.47       1531.3029    
    496000   2013.2268     -606.91603      0             -582.19419      5441.5708      1521.2375    
    497000   1892.9039     -610.60562      0             -587.3613      -10246.497      1502.7853    
    498000   2136.2857     -610.19751      0             -583.96453     -23019.466      1535.1098    
    499000   2233.732      -605.36822      0             -577.93863      10631.479      1503.1703    
    500000   2020.9366     -607.74449      0             -582.92797      9636.1891      1519.1929    
    501000   2000.0266     -607.93824      0             -583.37848      2116.587       1518.4394    
    502000   2261.5198     -605.55106      0             -577.78025     -13690.452      1530.6424    
    503000   1995.0091     -610.93266      0             -586.43452     -13246.132      1530.3582    
    504000   1984.7889     -606.28551      0             -581.91287     -32741.207      1579.4302    
    505000   2016.8781     -611.37054      0             -586.60385     -4403.5339      1500.6038    
    506000   2137.1022     -608.0152       0             -581.7722       1070.8735      1522.3464    
    507000   1847.7988     -609.86659      0             -587.17615      10028.882      1497.6763    
    508000   2032.2091     -608.92532      0             -583.97037      7678.1448      1526.0058    
    509000   2240.8129     -609.63005      0             -582.1135       21081.347      1497.2352    
    510000   2024.0764     -609.12477      0             -584.26969      1442.6953      1516.1499    
    511000   2041.8297     -608.31096      0             -583.23787      29174.137      1514.7957    
    512000   1981.5442     -604.65833      0             -580.32553      43098.829      1502.5489    
    513000   1879.5378     -609.82957      0             -586.74938      14090.159      1520.4877    
    514000   1769.9049     -605.0318       0             -583.29788      10932.559      1486.3444    
    515000   1827.1953     -611.76946      0             -589.33203     -16664.833      1516.0396    
    516000   1915.144      -606.2322       0             -582.71478     -17936.855      1560.5551    
    517000   2054.5543     -605.57725      0             -580.34791     -7398.6096      1546.878     
    518000   1838.4419     -607.09742      0             -584.52188     -1363.9875      1519.4581    
    519000   2114.8915     -605.19918      0             -579.22892     -8763.198       1579.7555    
    520000   1798.6074     -607.06401      0             -584.97762     -11673.079      1491.3087    
    521000   2156.8756     -607.80527      0             -581.31945      7810.3081      1511.6177    
    522000   2104.9084     -603.32125      0             -577.47358     -22977.133      1603.8793    
    523000   1873.6832     -605.97848      0             -582.97019      42033.022      1523.9107    
    524000   2187.9479     -601.30941      0             -574.44203      10769.868      1537.8445    
    525000   2185.1162     -605.85259      0             -579.01999      7943.2457      1548.5       
    526000   2050.0956     -609.36461      0             -584.19002      28580.597      1540.7132    
    527000   1983.8968     -606.87952      0             -582.51783     -11911.533      1576.3991    
    528000   1913.9469     -608.73024      0             -585.22752      4272.973       1550.0335    
    529000   1876.208      -604.96331      0             -581.92401     -535.66954      1555.0553    
    530000   2228.5192     -607.30613      0             -579.94055      20053.972      1509.9503    
    531000   1941.1162     -608.4169       0             -584.58055     -6365.0964      1562.8996    
    532000   1982.5701     -609.1283       0             -584.7829      -1278.1485      1518.2789    
    533000   1920.6132     -605.62463      0             -582.04005     -19106.74       1538.2877    
    534000   1861.4389     -607.37037      0             -584.51243      4385.9656      1555.3084    
    535000   2107.0903     -606.16473      0             -580.29027      15296.624      1538.5371    
    536000   2037.5007     -606.1697       0             -581.14977      12999.191      1512.5839    
    537000   1874.9648     -608.75565      0             -585.73162     -31362.416      1585.5335    
    538000   1804.7047     -602.60177      0             -580.44052      3501.8235      1548.7181    
    539000   1995.6176     -603.64325      0             -579.13764     -7207.6333      1570.6343    
    540000   2024.3811     -608.79717      0             -583.93835      6985.1487      1565.0292    
    541000   2305.6577     -608.31577      0             -580.00296      1935.659       1516.5864    
    542000   2076.0733     -606.02917      0             -580.53559      3804.9706      1590.6748    
    543000   1999.1364     -603.96742      0             -579.4186       24810.538      1522.5384    
    544000   2145.4235     -607.93667      0             -581.59149     -981.55668      1554.7758    
    545000   1876.2247     -604.39936      0             -581.35986     -31198.72       1585.1407    
    546000   1801.0195     -605.41147      0             -583.29547     -9876.8039      1572.8673    
    547000   1800.3254     -606.51851      0             -584.41103     -30991.682      1551.6141    
    548000   2161.3601     -603.94439      0             -577.40351     -27921.195      1615.9194    
    549000   1726.6597     -602.63913      0             -581.43625      11994.38       1509.4986    
    550000   2216.7367     -607.48673      0             -580.26583      8650.2446      1545.8959    
    551000   2068.2833     -606.78036      0             -581.38244     -21694.268      1546.9511    
    552000   2152.5052     -602.42628      0             -575.99413     -13912.602      1550.7085    
    553000   2070.2528     -608.46752      0             -583.0454       10101.498      1524.8034    
    554000   1918.438      -603.98144      0             -580.42357      16766.474      1475.2986    
    555000   2127.8747     -613.12094      0             -586.99125     -10075.821      1567.3325    
    556000   1793.1456     -604.62493      0             -582.60561     -1932.4391      1507.8046    
    557000   2297.4228     -608.61953      0             -580.40784     -2930.4602      1543.4576    
    558000   1898.5767     -609.05269      0             -585.73871     -4021.0599      1520.4096    
    559000   1843.2135     -603.47427      0             -580.84013      32954.132      1480.7729    
    560000   1863.8006     -601.65465      0             -578.76771      16927.139      1577.8313    
Loop time of 6.02464 on 1 procs for 80000 steps with 96 atoms

Performance: 1147.288 ns/day, 0.021 hours/ns, 13278.802 timesteps/s, 1.275 Matom-step/s
99.2% CPU use with 1 MPI tasks x no OpenMP threads

MPI task timing breakdown:
Section |  min time  |  avg time  |  max time  |%varavg| %total
---------------------------------------------------------------
Pair    | 5.1102     | 5.1102     | 5.1102     |   0.0 | 84.82
Bond    | 0.002523   | 0.002523   | 0.002523   |   0.0 |  0.04
Neigh   | 0.23206    | 0.23206    | 0.23206    |   0.0 |  3.85
Comm    | 0.19605    | 0.19605    | 0.19605    |   0.0 |  3.25
Output  | 0.010835   | 0.010835   | 0.010835   |   0.0 |  0.18
Modify  | 0.44171    | 0.44171    | 0.44171    |   0.0 |  7.33
Other   |            | 0.03126    |            |       |  0.52

Nlocal:             96 ave          96 max          96 min
Histogram: 1 0 0 0 0 0 0 0 0 0
Nghost:            508 ave         508 max         508 min
Histogram: 1 0 0 0 0 0 0 0 0 0
Neighs:              0 ave           0 max           0 min
Histogram: 1 0 0 0 0 0 0 0 0 0
FullNghs:         2604 ave        2604 max        2604 min
Histogram: 1 0 0 0 0 0 0 0 0 0

Total # of neighbors = 2604
Ave neighs/atom = 27.125
Ave special neighs/atom = 0
Neighbor list builds = 1883
Dangerous builds = 0

fix npt1 all npt temp 2000 1000 0.1 iso 0 0 1
run 80000
Per MPI rank memory allocation (min/avg/max) = 8.549 | 8.549 | 8.549 Mbytes
   Step          Temp          E_pair         E_mol          TotEng         Press          Volume    
    560000   1863.8006     -601.65465      0             -578.76771      16927.139      1577.8313    
    561000   1768.7944     -609.28547      0             -587.56518     -14705.466      1525.0293    
    562000   1947.1189     -606.69122      0             -582.78116     -13236.173      1527.4656    
    563000   2219.9033     -606.90301      0             -579.64323     -11058.711      1568.1039    
    564000   2023.5549     -608.57474      0             -583.72606      1124.3935      1521.529     
    565000   2128.6528     -604.21755      0             -578.0783      -2968.6988      1542.3399    
    566000   1825.2097     -607.34225      0             -584.9292      -15276.716      1562.4007    
    567000   2098.0556     -602.17323      0             -576.40971     -5774.818       1538.2391    
    568000   1464.5385     -602.9049       0             -584.92079      40905.767      1526.0119    
    569000   1756.523      -610.03544      0             -588.46584      39142.242      1526.659     
    570000   2062.6116     -608.92643      0             -583.59815      38920.036      1553.7759    
    571000   1796.7916     -609.46376      0             -587.39967     -24427.424      1562.2827    
    572000   1759.8039     -607.34732      0             -585.73743      7827.3788      1528.9935    
    573000   1811.7681     -610.87531      0             -588.62731      1227.5895      1536.5224    
    574000   2022.3294     -607.56435      0             -582.73072      17432.498      1531.5818    
    575000   1649.2258     -608.61557      0             -588.36355     -11784.605      1541.6341    
    576000   1880.9585     -608.56338      0             -585.46575      24965.228      1520.6452    
    577000   2027.9255     -607.87459      0             -582.97224     -24796.913      1547.6964    
    578000   1645.1146     -608.36802      0             -588.16648      5688.8637      1556.8118    
    579000   1819.8776     -607.95048      0             -585.6029       1128.7498      1544.9521    
    580000   1602.9222     -610.33909      0             -590.65567      18144.538      1517.4438    
    581000   1623.3813     -608.52274      0             -588.58808     -17640.847      1560.3778    
    582000   1687.9498     -608.89987      0             -588.17233      11067.34       1513.0034    
    583000   1559.9763     -609.46922      0             -590.31316     -14342.696      1556.0573    
    584000   1786.4996     -609.0541       0             -587.1164       14819.204      1540.9781    
    585000   1568.5021     -613.54848      0             -594.28772      10862.996      1490.7821    
    586000   1463.5234     -608.2891       0             -590.31746     -24491.079      1568.4991    
    587000   1685.7332     -611.08415      0             -590.38382      16245.679      1538.4204    
    588000   1635.8842     -610.51591      0             -590.42772     -546.09192      1523.1408    
    589000   1470.9547     -612.75564      0             -594.69274      11042.649      1526.0932    
    590000   1718.3278     -611.35125      0             -590.25067     -1560.1687      1535.4003    
    591000   1700.5714     -610.42494      0             -589.54241      1451.8193      1537.3528    
    592000   1706.6114     -609.43964      0             -588.48295     -1817.5246      1540.454     
    593000   1662.8761     -612.78352      0             -592.36388      5718.426       1518.8206    
    594000   1454.5444     -608.06735      0             -590.20596      11783.591      1476.4162    
    595000   1373.928      -612.07269      0             -595.20124      9753.7599      1497.9897    
    596000   1366.5003     -611.69831      0             -594.91808     -8155.1259      1543.771     
    597000   1647.858      -610.57216      0             -590.33693     -7310.1346      1537.8183    
    598000   1385.2361     -609.56516      0             -592.55486     -22081.355      1546.1742    
    599000   1446.5571     -613.85569      0             -596.09238      1972.8061      1522.8513    
    600000   1337.7148     -611.36909      0             -594.94234      7159.8367      1532.0801    
    601000   1417.9755     -614.78501      0             -597.37268     -10133.977      1548.573     
    602000   1524.6517     -614.56103      0             -595.83874      36526.783      1478.549     
    603000   1352.9496     -612.72725      0             -596.11341      153.29151      1559.7679    
    604000   1321.0718     -614.40726      0             -598.18488      9684.1325      1532.2662    
    605000   1361.4307     -612.29596      0             -595.57798     -7253.3671      1517.4638    
    606000   1380.4421     -614.26281      0             -597.31138      18618.63       1536.5457    
    607000   1438.5421     -614.78826      0             -597.12337     -334.9831       1503.9898    
    608000   1537.9173     -614.24978      0             -595.36459      2971.3745      1527.875     
    609000   1203.5861     -613.64376      0             -598.86407     -691.93936      1528.1528    
    610000   1478.3181     -615.3127       0             -597.15938     -4161.0314      1521.1796    
    611000   1248.6979     -617.53924      0             -602.20559     -13360.73       1530.7107    
    612000   1478.9892     -616.00448      0             -597.84292     -16822.265      1521.51      
    613000   1280.3289     -616.00906      0             -600.28699     -13152.077      1524.049     
    614000   1422.5063     -615.38468      0             -597.91671     -22653.422      1561.2486    
    615000   1152.3131     -615.57303      0             -601.42296      1594.6076      1522.7021    
    616000   1268.3537     -616.08787      0             -600.51285      16084.305      1503.3615    
    617000   1386.5732     -616.77358      0             -599.74686     -10232.301      1547.8873    
    618000   1409.4591     -616.55589      0             -599.24814      30877.009      1504.6038    
    619000   1166.8717     -617.37182      0             -603.04297      24027.111      1472.5465    
    620000   1216.068      -619.08296      0             -604.14999     -19398.762      1552.7151    
    621000   1252.4875     -616.1804       0             -600.80022     -5864.4903      1507.2045    
    622000   1182.8584     -616.79352      0             -602.26836     -11163.012      1522.2047    
    623000   1334.436      -616.42943      0             -600.04294     -11968.736      1517.1872    
    624000   1317.7375     -618.00215      0             -601.82071     -1949.8305      1523.4933    
    625000   1165.5959     -618.96231      0             -604.64913      1580.1923      1504.6844    
    626000   999.38678     -616.71678      0             -604.4446      -7813.9949      1495.7605    
    627000   1204.4389     -616.70911      0             -601.91894     -8357.887       1539.0634    
    628000   1091.8884     -617.773        0             -604.36493      7356.7708      1489.2071    
    629000   1291.0288     -618.31862      0             -602.46515     -856.68345      1486.6143    
    630000   1246.2725     -617.61753      0             -602.31366     -68.033145      1534.1799    
[...]
Neighs:              0 ave           0 max           0 min
Histogram: 1 0 0 0 0 0 0 0 0 0
FullNghs:         2744 ave        2744 max        2744 min
Histogram: 1 0 0 0 0 0 0 0 0 0

Total # of neighbors = 2744
Ave neighs/atom = 28.583333
Ave special neighs/atom = 0
Neighbor list builds = 82
Dangerous builds = 0


fix npt1 all npt temp 500 10 0.1 iso 0 0 1
run 80000
Per MPI rank memory allocation (min/avg/max) = 8.549 | 8.549 | 8.549 Mbytes
   Step          Temp          E_pair         E_mol          TotEng         Press          Volume    
    880000   467.12731     -625.89156      0             -620.15537      11825.71       1457.4751    
    881000   512.70189     -626.40546      0             -620.10962     -1033.585       1505.1134    
    882000   516.8221      -627.49428      0             -621.14785      2731.8969      1506.5394    
    883000   484.14656     -626.53495      0             -620.58977     -18734.276      1512.1184    
    884000   523.17825     -626.52         0             -620.09553     -20960.496      1531.1053    
    885000   397.34972     -626.62037      0             -621.74103      1307.7499      1501.1964    
    886000   488.84599     -626.65603      0             -620.65314      9397.6422      1495.4937    
    887000   447.12031     -627.24909      0             -621.75858      6127.1518      1488.728     
    888000   492.90345     -628.06918      0             -622.01646     -5379.6277      1497.8418    
    889000   548.94228     -627.56444      0             -620.82358     -7410.0112      1500.0258    
    890000   437.14255     -627.3061       0             -621.93812     -4865.4115      1502.1221    
    891000   364.32229     -627.24989      0             -622.77612     -8952.6614      1505.0949    
    892000   438.31948     -627.06799      0             -621.68555     -1510.8556      1501.5486    
    893000   358.64203     -627.00751      0             -622.60349      1560.278       1509.7979    
    894000   378.04625     -628.04588      0             -623.40358      14498.557      1481.2986    
    895000   416.63055     -627.02962      0             -621.91352      11006.618      1501.586     
    896000   377.54056     -627.85874      0             -623.22265     -2267.933       1496.3837    
    897000   424.47766     -627.67237      0             -622.4599      -3613.058       1479.305     
    898000   359.30069     -627.75449      0             -623.34238      1087.1325      1483.5004    
    899000   388.99987     -627.74239      0             -622.96558     -3472.2965      1478.5532    
    900000   384.32149     -627.48759      0             -622.76823      13570.369      1490.9311    
    901000   359.9279      -628.49397      0             -624.07415      1197.3885      1491.5764    
    902000   362.99929     -628.33983      0             -623.88231     -2062.7341      1487.5132    
    903000   379.84292     -628.66629      0             -624.00193     -922.94639      1507.1576    
    904000   337.57858     -627.68295      0             -623.53758     -1859.8322      1498.2586    
    905000   301.7708      -628.61685      0             -624.91119      1826.5313      1469.7707    
    906000   364.78741     -628.62344      0             -624.14396     -1254.375       1487.8546    
    907000   342.98677     -628.89748      0             -624.6857       3379.2673      1489.9666    
    908000   328.42171     -628.68462      0             -624.6517       3661.6947      1502.223     
    909000   354.59907     -628.61206      0             -624.25768      3713.4887      1500.8085    
    910000   300.38736     -628.73116      0             -625.04249     -5773.4511      1479.7883    
    911000   358.97032     -628.53385      0             -624.12579     -2204.0875      1508.4907    
    912000   318.0344      -628.66859      0             -624.76322     -5740.1729      1486.5884    
    913000   267.44428     -628.77902      0             -625.49488      2157.7306      1486.5654    
    914000   299.32174     -628.58557      0             -624.90999     -2610.9907      1495.5909    
    915000   306.21102     -629.02947      0             -625.26929     -2695.4562      1496.4698    
    916000   315.10309     -629.60733      0             -625.73795      119.41695      1493.3098    
    917000   261.30158     -629.55566      0             -626.34695     -1148.0024      1477.7565    
    918000   259.55228     -629.66747      0             -626.48025      3463.6172      1493.1533    
    919000   262.91976     -629.30434      0             -626.07576      1858.959       1489.6732    
    920000   236.60661     -629.886        0             -626.98054     -6465.8769      1492.4946    
    921000   249.35293     -629.37614      0             -626.31416      6688.3568      1479.4599    
    922000   228.85303     -629.77243      0             -626.96218      6050.6753      1508.4803    
    923000   262.18793     -629.67075      0             -626.45116     -7263.7494      1509.2924    
    924000   185.85961     -629.77224      0             -627.48994      10500.475      1480.4463    
    925000   250.38394     -629.97591      0             -626.90126     -4232.3829      1493.8419    
    926000   241.21049     -630.21336      0             -627.25137     -2787.8403      1477.1836    
    927000   209.73106     -630.18257      0             -627.60713      5160.0556      1472.8599    
    928000   219.87313     -629.79926      0             -627.09928      9070.3264      1476.1016    
    929000   203.01245     -629.85713      0             -627.36419     -1233.3954      1490.8083    
    930000   182.44825     -630.21616      0             -627.97575      5740.7148      1475.6015    
    931000   188.7579      -630.43037      0             -628.11248     -2976.5214      1478.4518    
    932000   200.08654     -630.17729      0             -627.72029      1819.9545      1476.519     
    933000   165.10651     -630.46492      0             -628.43746     -3410.3889      1503.7799    
    934000   147.03593     -630.64243      0             -628.83687     -5340.5805      1493.6307    
    935000   154.54939     -630.82087      0             -628.92305      3959.7683      1477.5215    
    936000   174.88058     -630.68295      0             -628.53547      873.84223      1470.56      
    937000   132.01461     -630.66609      0             -629.04498      3214.2316      1485.6253    
    938000   186.67054     -631.16299      0             -628.87073     -311.50888      1486.7411    
    939000   129.41839     -631.0334       0             -629.44418      3727.5138      1479.6381    
    940000   132.70851     -631.01411      0             -629.38449     -7849.1724      1494.8992    
    941000   141.33431     -631.18248      0             -629.44693      412.77916      1487.5036    
    942000   121.76257     -631.17307      0             -629.67786     -4918.5252      1487.0964    
    943000   117.83202     -631.4157       0             -629.96876     -1615.5992      1484.9983    
    944000   110.31704     -631.57387      0             -630.21921      268.34242      1489.4918    
    945000   104.97977     -631.41947      0             -630.13035     -2766.5754      1494.8688    
    946000   84.840546     -631.56412      0             -630.52231      3029.4818      1479.9331    
    947000   99.675725     -631.56509      0             -630.3411      -749.3033       1482.2689    
    948000   90.258474     -631.75368      0             -630.64533      7738.8856      1472.2279    
    949000   80.621671     -631.83373      0             -630.84372      1778.572       1482.5892    
    950000   75.314136     -631.73387      0             -630.80904      2943.4087      1486.445     
    951000   63.279242     -631.96535      0             -631.1883      -935.94092      1478.3735    
    952000   60.79802      -632.09668      0             -631.3501       547.09919      1482.5831    
    953000   56.923976     -632.14671      0             -631.4477       3272.5214      1472.5434    
    954000   40.60635      -632.08327      0             -631.58464     -131.35463      1482.5279    
    955000   42.125275     -632.207        0             -631.68971     -2298.3506      1481.7402    
    956000   35.053126     -632.25436      0             -631.82392     -1089.1607      1484.6721    
    957000   31.720617     -632.39505      0             -632.00553      385.88245      1480.8405    
    958000   24.087383     -632.46819      0             -632.1724       449.36608      1478.7631    
    959000   15.190458     -632.53015      0             -632.34362     -349.71224      1482.5523    
    960000   9.1632293     -632.586        0             -632.47348      948.65269      1479.5137    
Loop time of 5.40581 on 1 procs for 80000 steps with 96 atoms

Performance: 1278.623 ns/day, 0.019 hours/ns, 14798.883 timesteps/s, 1.421 Matom-step/s
99.1% CPU use with 1 MPI tasks x no OpenMP threads

MPI task timing breakdown:
Section |  min time  |  avg time  |  max time  |%varavg| %total
---------------------------------------------------------------
Pair    | 4.7606     | 4.7606     | 4.7606     |   0.0 | 88.06
Bond    | 0.0025945  | 0.0025945  | 0.0025945  |   0.0 |  0.05
Neigh   | 0.0020771  | 0.0020771  | 0.0020771  |   0.0 |  0.04
Comm    | 0.1768     | 0.1768     | 0.1768     |   0.0 |  3.27
Output  | 0.010546   | 0.010546   | 0.010546   |   0.0 |  0.20
Modify  | 0.42797    | 0.42797    | 0.42797    |   0.0 |  7.92
Other   |            | 0.02524    |            |       |  0.47

Nlocal:             96 ave          96 max          96 min
Histogram: 1 0 0 0 0 0 0 0 0 0
Nghost:            524 ave         524 max         524 min
Histogram: 1 0 0 0 0 0 0 0 0 0
Neighs:              0 ave           0 max           0 min
Histogram: 1 0 0 0 0 0 0 0 0 0
FullNghs:         2796 ave        2796 max        2796 min
Histogram: 1 0 0 0 0 0 0 0 0 0

Total # of neighbors = 2796
Ave neighs/atom = 29.125
Ave special neighs/atom = 0
Neighbor list builds = 17
Dangerous builds = 0

fix npt1 all npt temp 10 10 0.1 iso 0 0 1
run 80000
Per MPI rank memory allocation (min/avg/max) = 8.549 | 8.549 | 8.549 Mbytes
   Step          Temp          E_pair         E_mol          TotEng         Press          Volume    
    960000   9.1632293     -632.586        0             -632.47348      948.65269      1479.5137    
    961000   9.6320342     -632.6236       0             -632.50532      840.42725      1479.9863    
    962000   9.8795782     -632.60081      0             -632.47949      1961.6746      1481.4925    
    963000   9.7118215     -632.61621      0             -632.49695      2602.9499      1480.9344    
    964000   9.1516033     -632.61036      0             -632.49799     -226.27441      1482.2325    
    965000   11.569635     -632.61087      0             -632.46879     -262.16302      1483.6047    
    966000   8.6860306     -632.59103      0             -632.48437     -466.69592      1481.6353    
    967000   8.36698       -632.60684      0             -632.50409     -852.03651      1481.5827    
    968000   10.788028     -632.61768      0             -632.4852       74.05754       1481.2534    
    969000   8.5397112     -632.61783      0             -632.51296     -101.85183      1482.085     
    970000   11.264666     -632.6119       0             -632.47357     -2017.7204      1482.807     
    971000   10.517951     -632.61685      0             -632.48769     -1667.6615      1484.7772    
    972000   10.460074     -632.62435      0             -632.4959      -1409.0145      1484.1944    
    973000   11.201145     -632.60122      0             -632.46367     -1743.7011      1481.3325    
    974000   10.123869     -632.60087      0             -632.47655     -212.73944      1478.2822    
    975000   10.040426     -632.61812      0             -632.49482     -2044.8109      1482.6771    
    976000   10.468661     -632.59971      0             -632.47116     -1921.6838      1484.3057    
    977000   10.567697     -632.61056      0             -632.48079      1451.3157      1477.4786    
    978000   10.669503     -632.61664      0             -632.48563      1143.6949      1479.8735    
    979000   8.5053718     -632.62625      0             -632.52181      2645.9546      1478.7729    
    980000   10.76169      -632.59791      0             -632.46576      2152.642       1478.6686    
    981000   7.5397826     -632.60128      0             -632.50869      1747.8353      1477.9125    
    982000   10.823261     -632.60079      0             -632.46788      830.18871      1480.1274    
    983000   10.214732     -632.61712      0             -632.49169      154.96664      1479.1312    
    984000   10.384407     -632.59834      0             -632.47082     -752.7211       1480.0679    
    985000   9.0164557     -632.62291      0             -632.51219     -1131.7301      1482.193     
    986000   10.096774     -632.60088      0             -632.4769      -3911.9084      1484.0201    
    987000   9.806568      -632.61981      0             -632.49939     -1737.8709      1480.9048    
    988000   10.591701     -632.59606      0             -632.466       -339.71807      1481.7416    
    989000   9.1358879     -632.62034      0             -632.50815     -728.25845      1480.9045    
    990000   10.737763     -632.60945      0             -632.4776      -1062.2483      1481.2008    
    991000   9.2388955     -632.61138      0             -632.49792     -850.35718      1481.9721    
    992000   9.97809       -632.59491      0             -632.47239     -229.29915      1479.7933    
    993000   8.8358689     -632.61868      0             -632.51018      667.55543      1480.1614    
    994000   9.1176937     -632.60764      0             -632.49568     -1186.4367      1483.2604    
    995000   9.6362329     -632.61809      0             -632.49976      746.66035      1482.7342    
    996000   9.6865314     -632.60638      0             -632.48743     -529.04029      1481.1496    
    997000   9.0646764     -632.61723      0             -632.50592      689.21018      1483.4627    
    998000   10.504553     -632.60667      0             -632.47768      2487.4145      1477.4297    
    999000   9.4398391     -632.60615      0             -632.49024      133.41065      1481.391     
   1000000   10.491984     -632.59907      0             -632.47023     -1582.8946      1483.3797    
   1001000   9.216522      -632.60782      0             -632.49465     -500.89631      1480.3025    
   1002000   10.208633     -632.59993      0             -632.47457     -743.50895      1479.1256    
   1003000   10.640268     -632.6113       0             -632.48064      1491.9492      1481.4919    
   1004000   9.0449714     -632.62613      0             -632.51506      215.48847      1481.61      
   1005000   9.888876      -632.61282      0             -632.49139     -242.57833      1481.3621    
   1006000   9.9440796     -632.60914      0             -632.48703     -1087.7179      1480.2689    
   1007000   10.186305     -632.62106      0             -632.49598     -302.81434      1482.7598    
   1008000   9.4110328     -632.6029       0             -632.48734     -50.881321      1480.9601    
   1009000   10.57771      -632.6244       0             -632.49451      1086.86        1478.8512    
   1010000   10.063005     -632.62151      0             -632.49794      1471.2176      1478.9944    
   1011000   11.197549     -632.60207      0             -632.46457      2548.7058      1478.6791    
   1012000   10.058952     -632.62419      0             -632.50067      129.80216      1480.2198    
   1013000   10.172935     -632.60635      0             -632.48143     -573.67083      1479.8561    
   1014000   9.6958781     -632.61902      0             -632.49996     -399.68729      1480.0702    
   1015000   9.9234661     -632.59861      0             -632.47675     -810.43504      1480.258     
   1016000   10.967463     -632.60733      0             -632.47265     -63.015184      1479.4987    
   1017000   9.5210545     -632.63926      0             -632.52234      1389.5818      1479.8273    
   1018000   9.3818869     -632.60003      0             -632.48483      554.38378      1478.843     
   1019000   11.618283     -632.62169      0             -632.47902      224.52307      1479.8771    
   1020000   9.6329292     -632.61158      0             -632.49329      844.78391      1480.8964    
   1021000   9.7099134     -632.59074      0             -632.4715       845.91948      1478.7572    
   1022000   9.2894445     -632.61674      0             -632.50266      1619.1951      1478.1432    
   1023000   10.661213     -632.6047       0             -632.47378      1080.6895      1479.4975    
   1024000   9.6003705     -632.62063      0             -632.50274     -1520.0373      1483.6742    
   1025000   10.347201     -632.63416      0             -632.5071      -780.01762      1479.3483    
   1026000   10.107844     -632.60787      0             -632.48375     -1552.7666      1480.1831    
   1027000   9.0119938     -632.6322       0             -632.52154     -1803.8888      1481.2429    
   1028000   10.248436     -632.60486      0             -632.47901     -1066.436       1481.1773    
   1029000   8.8690376     -632.60822      0             -632.49931     -265.877        1482.9073    
   1030000   10.30241      -632.60156      0             -632.47505      506.71718      1479.7037    
   1031000   8.0174696     -632.61729      0             -632.51883     -35.79667       1479.3967    
   1032000   9.6176507     -632.6046       0             -632.48649      67.421985      1479.3477    
   1033000   9.4313004     -632.61499      0             -632.49917      77.593086      1479.053     
   1034000   10.278529     -632.60156      0             -632.47535     -734.95581      1480.9793    
   1035000   9.5802667     -632.61101      0             -632.49337      105.8887       1480.0463    
   1036000   8.9154899     -632.62245      0             -632.51297      598.72109      1482.4465    
   1037000   9.4768236     -632.60317      0             -632.48679      2784.5226      1480.6346    
   1038000   10.083994     -632.61014      0             -632.48631     -106.16264      1481.0775    
   1039000   10.255125     -632.61083      0             -632.4849       570.26216      1478.9902    
   1040000   9.4938669     -632.59744      0             -632.48086      151.83762      1481.4163    
Loop time of 5.31305 on 1 procs for 80000 steps with 96 atoms

Performance: 1300.948 ns/day, 0.018 hours/ns, 15057.266 timesteps/s, 1.445 Matom-step/s
99.2% CPU use with 1 MPI tasks x no OpenMP threads

MPI task timing breakdown:
Section |  min time  |  avg time  |  max time  |%varavg| %total
---------------------------------------------------------------
Pair    | 4.6661     | 4.6661     | 4.6661     |   0.0 | 87.82
Bond    | 0.0025216  | 0.0025216  | 0.0025216  |   0.0 |  0.05
Neigh   | 0          | 0          | 0          |   0.0 |  0.00
Comm    | 0.18313    | 0.18313    | 0.18313    |   0.0 |  3.45
Output  | 0.010589   | 0.010589   | 0.010589   |   0.0 |  0.20
Modify  | 0.42554    | 0.42554    | 0.42554    |   0.0 |  8.01
Other   |            | 0.02519    |            |       |  0.47

Nlocal:             96 ave          96 max          96 min
Histogram: 1 0 0 0 0 0 0 0 0 0
Nghost:            524 ave         524 max         524 min
Histogram: 1 0 0 0 0 0 0 0 0 0
Neighs:              0 ave           0 max           0 min
Histogram: 1 0 0 0 0 0 0 0 0 0
FullNghs:         2758 ave        2758 max        2758 min
Histogram: 1 0 0 0 0 0 0 0 0 0

Total # of neighbors = 2758
Ave neighs/atom = 28.729167
Ave special neighs/atom = 0
Neighbor list builds = 0
Dangerous builds = 0


write_data amorphousSiO.data
System init for write_data ...


Total wall time: 0:01:18
