96
 Atoms. Timestep: 0
2 0 7.95642 4.74695
2 4.63304 0 11.358
2 0 4.63304 4.74695
2 7.95642 0 11.358
2 0 4.63304 8.47514
2 7.95642 0 1.8641
2 0 7.95642 8.47514
2 4.63304 0 1.8641
2 10.7421 8.43088 6.61105
2 4.15858 10.7421 0
2 1.84736 4.15858 6.61105
2 8.43088 1.84736 0
2 1.84736 8.43088 6.61105
2 8.43088 10.7421 0
2 10.7421 4.15858 6.61105
2 4.15858 1.84736 0
2 10.5201 6.29473 5.04003
2 6.29473 10.5201 11.6511
2 2.06934 6.29473 5.04003
2 6.29473 2.06934 11.6511
2 2.06934 6.29473 8.18207
2 6.29473 2.06934 1.57102
2 10.5201 6.29473 8.18207
2 6.29473 10.5201 1.57102
2 10.1594 8.65935 9.20274
2 3.93011 10.1594 2.59169
2 2.43004 3.93011 9.20274
2 8.65935 2.43004 2.59169
2 2.43004 8.65935 9.20274
2 8.65935 10.1594 2.59169
2 10.1594 3.93011 9.20274
2 3.93011 2.43004 2.59169
2 2.43004 3.93011 4.01936
2 8.65935 2.43004 10.6304
2 10.1594 8.65935 4.01936
2 3.93011 10.1594 10.6304
2 10.1594 3.93011 4.01936
2 3.93011 2.43004 10.6304
2 2.43004 8.65935 4.01936
2 8.65935 10.1594 10.6304
2 0 10.703 0
2 1.88643 0 6.61105
2 0 1.88643 0
2 10.703 0 6.61105
2 0 0 1.872
2 0 0 8.48305
2 0 0 11.3501
2 0 0 4.73905
2 11.2706 2.31295 2.18973
2 10.2765 11.2706 8.80078
2 1.31887 10.2765 2.18973
2 2.31295 1.31887 8.80078
2 1.31887 2.31295 2.18973
2 2.31295 11.2706 8.80078
2 11.2706 10.2765 2.18973
2 10.2765 1.31887 8.80078
2 1.31887 10.2765 11.0324
2 2.31295 1.31887 4.42131
2 11.2706 2.31295 11.0324
2 10.2765 11.2706 4.42131
2 11.2706 10.2765 11.0324
2 10.2765 1.31887 4.42131
2 1.31887 2.31295 11.0324
2 2.31295 11.2706 4.42131
1 11.0086 7.83654 8.10972
1 4.75292 11.0086 1.49867
1 1.5809 4.75292 8.10972
1 7.83654 1.5809 1.49867
1 1.5809 7.83654 8.10972
1 7.83654 11.0086 1.49867
1 11.0086 4.75292 8.10972
1 4.75292 1.5809 1.49867
1 1.5809 4.75292 5.11238
1 7.83654 1.5809 11.7234
1 11.0086 7.83654 5.11238
1 4.75292 11.0086 11.7234
1 11.0086 4.75292 5.11238
1 4.75292 1.5809 11.7234
1 1.5809 7.83654 5.11238
1 7.83654 11.0086 11.7234
1 10.1088 10.1088 3.30552
1 2.48067 10.1088 9.91657
1 2.48067 2.48067 3.30552
1 10.1088 2.48067 9.91657
1 2.48067 10.1088 3.30552
1 10.1088 10.1088 9.91657
1 10.1088 2.48067 3.30552
1 2.48067 2.48067 9.91657
1 0 1.60471 1.57853
1 10.9848 0 8.18958
1 0 10.9848 1.57853
1 1.60471 0 8.18958
1 0 10.9848 11.6436
1 1.60471 0 5.03252
1 0 1.60471 11.6436
1 10.9848 0 5.03252
96
 Atoms. Timestep: 2000
2 0.051102 8.31914 5.32947
2 4.24626 12.784 11.685
2 12.1925 4.69571 4.38803
2 8.29774 0.360821 9.80488
2 0.378768 3.83942 8.48811
2 7.83937 0.778448 0.462468
2 0.375429 7.90324 8.43062
2 5.51682 12.5983 1.10133
2 11.3117 8.11252 6.94186
2 5.68956 11.0813 -0.234649
2 2.39365 3.29866 6.54222
2 7.76361 3.00035 0.0493376
2 1.9123 7.78356 6.94564
2 8.60014 11.6376 12.5738
2 11.1315 4.99239 7.05939
2 3.9069 1.31475 0.00584413
2 10.4565 6.78661 5.22135
2 6.41075 11.5569 11.206
2 1.515 6.11611 4.76544
2 5.5096 2.5592 11.4933
2 1.55518 5.5962 8.90415
2 6.05993 1.60209 2.08579
2 11.6679 6.08283 9.0566
2 7.78893 10.338 1.56388
2 10.9365 8.83916 8.95622
2 4.34707 10.4417 2.13357
2 1.86891 3.72811 9.76207
2 8.47378 2.52826 2.86649
2 2.62669 8.7246 9.49159
2 9.69764 11.3137 1.40487
2 10.2756 3.4426 9.4774
2 2.86032 0.585587 2.34549
2 1.21084 2.68685 4.38542
2 8.0229 2.12876 10.6225
2 11.388 9.66545 4.34808
2 4.25201 10.4054 10.8657
2 10.0764 3.26176 4.84482
2 2.85551 2.2676 11.0758
2 2.42138 8.40096 3.71122
2 8.91847 10.8947 10.1339
2 0.489012 10.8429 0.0494271
2 1.87184 12.3576 6.69001
2 12.1671 1.08259 -0.294109
2 10.4608 0.638368 6.39239
2 0.166294 12.6656 1.3924
2 12.6884 12.6532 8.5016
2 12.8064 12.8388 11.948
2 0.274285 12.6364 4.4018
2 10.7182 1.35019 2.02991
2 10.3549 11.805 8.13552
2 1.19493 10.5619 2.80031
2 1.2474 0.716839 9.58364
2 0.463794 1.83704 2.02839
2 2.16692 11.744 9.15378
2 11.8603 10.668 2.43881
2 9.86835 1.45573 8.31326
2 1.11146 10.305 11.0387
2 2.63812 0.387946 4.34643
2 10.466 1.31213 10.6735
2 10.7654 11.7414 4.29176
2 11.4103 11.0355 11.124
2 11.3702 1.74258 4.17795
2 12.7341 2.42787 11.463
2 2.49624 11.2422 4.48176
1 11.5907 7.7494 8.64019
1 6.01077 10.6644 1.25917
1 1.90595 4.19616 7.9331
1 7.79244 1.90885 1.61957
1 2.16855 7.17658 8.58691
1 8.56346 11.8953 0.581094
1 11.5406 4.51226 8.49999
1 4.37856 0.620846 1.67018
1 1.00104 4.33908 4.47875
1 6.89398 2.54053 12.1108
1 11.331 8.20255 5.33474
1 4.97644 11.4429 12.2244
1 10.5171 4.8119 5.41752
1 3.98795 1.46225 12.0457
1 1.82283 7.63977 5.27468
1 7.99591 12.2467 10.7689
1 10.432 10.8533 3.1528
1 2.7384 10.2595 9.94233
1 1.61157 1.52533 3.08198
1 9.58967 1.98126 9.71764
1 2.71266 10.1814 3.2988
1 10.4499 10.7213 9.44927
1 10.0033 2.5205 3.30926
1 1.28553 2.36844 10.7625
1 12.1455 1.16358 1.35488
1 10.7215 0.22153 7.76788
1 0.0740547 10.9524 1.5863
1 1.31498 12.5553 8.17126
1 -0.00618024 11.1992 12.0734
1 1.77296 12.287 5.18722
1 11.7524 1.14573 11.7098
1 11.3698 0.285854 4.74428
96
 Atoms. Timestep: 4000
2 12.3882 8.1004 4.91769
2 4.00349 12.7959 11.7798
2 12.518 4.6501 4.58486
2 10.1075 1.58529 12.5274
2 0.0410884 4.33874 9.08638
2 7.48422 -0.402559 1.86335
2 -0.156237 7.55538 8.97499
2 4.58936 0.0611654 0.0912609
2 10.8442 8.74278 6.85035
2 4.61032 10.823 13.3071
2 1.66851 4.04784 6.75464
2 7.90472 12.8708 11.4433
2 0.598117 8.13494 6.59201
2 7.77716 10.8909 -0.311325
2 11.0772 4.50344 7.26473
2 3.95209 2.37728 0.0435477
2 11.3084 6.26424 5.06826
2 6.31304 10.4728 11.6061
2 1.38788 5.90635 3.87826
2 6.06562 1.48673 12.3168
2 1.85259 6.41964 8.33036
2 6.05724 2.40855 1.47134
2 10.8536 6.01521 8.87556
2 6.20683 11.0713 1.47559
2 11.2783 9.11939 9.59329
2 3.52888 10.6121 1.92266
2 2.54281 3.86858 9.65455
2 8.67864 1.99098 2.81154
2 1.70871 9.15961 9.18098
2 8.38509 10.2337 2.25894
2 10.4012 3.49039 9.76948
2 3.8532 2.45303 2.77733
2 1.44599 2.89529 3.23954
2 8.68134 2.18994 11.0825
2 10.3152 8.7456 3.87504
2 3.47241 10.5334 11.4788
2 10.7163 3.31607 4.60548
2 3.86872 1.9668 11.3031
2 1.66562 8.75786 3.47228
2 9.23329 10.6119 10.735
2 12.3414 11.0108 -0.471362
2 2.26767 0.167132 6.31436
2 0.395063 1.65505 -0.31831
2 11.0696 12.6276 5.96505
2 12.2701 -0.158853 1.68054
2 0.437437 12.3555 7.73548
2 0.3526 12.6706 11.9296
2 0.19329 12.834 4.95639
2 11.4036 2.46554 1.71819
2 10.7698 11.0783 8.43063
2 0.838746 10.878 1.9228
2 2.14417 1.33644 8.90028
2 1.45717 1.17499 1.94908
2 1.68904 12.1625 9.36144
2 11.0504 10.8144 1.82306
2 10.3547 0.184818 8.501
2 0.965052 10.3052 11.311
2 2.70462 0.829247 4.08393
2 11.892 1.7513 11.192
2 10.3831 11.704 4.1364
2 11.3483 11.4332 11.419
2 11.1945 1.53525 3.6652
2 1.2538 2.23992 11.2662
2 1.94101 11.1607 4.50731
1 11.4216 7.80006 8.67782
1 4.60935 11.6295 0.909242
1 1.54266 4.88041 8.2656
1 7.08563 1.29654 2.356
1 1.06375 8.13806 8.07461
1 7.66422 11.2715 1.27955
1 11.4835 4.30369 8.85839
1 4.63472 2.88743 1.33375
1 1.04923 4.07327 4.61159
1 7.60945 1.2114 11.5683
1 10.8804 7.80724 5.24577
1 4.71813 11.2099 11.5931
1 11.1025 4.70106 5.75396
1 4.25294 0.98819 12.6209
1 0.995057 7.38563 4.88128
1 7.95504 11.24 11.8396
1 9.94459 10.1397 3.05215
1 2.2695 10.3355 10.257
1 2.60313 1.74799 2.93327
1 10.3843 2.36064 11.0925
1 2.21433 10.1544 2.84681
1 10.7721 10.4855 10.0618
1 10.0249 2.70527 2.86491
1 2.39464 2.19919 10.1619
1 -0.259218 1.53198 1.3573
1 11.6308 12.587 7.42141
1 12.6151 11.4773 1.39309
1 1.71979 0.172271 7.86124
1 13.0118 11.2651 11.7459
1 2.04158 12.7852 4.73635
1 0.182507 1.19857 11.8347
1 11.6831 13.0222 4.50188
96
 Atoms. Timestep: 6000
2 0.482366 7.47145 4.41114
2 4.02603 0.165183 12.6854
2 12.2948 4.16274 4.61766
2 10.7747 4.53173 11.278
2 1.03347 4.6273 7.62255
2 7.82881 12.4439 1.55851
2 0.832981 8.30566 8.26246
2 6.05307 12.4413 3.30358
2 11.6669 8.58074 6.61146
2 3.91444 10.9389 1.16054
2 2.29802 4.78488 6.02701
2 7.01361 11.9686 10.0481
2 3.06987 7.92621 6.27658
2 7.89647 10.1786 13.04
2 11.507 3.86233 6.43824
2 4.4632 2.66769 12.8633
2 10.3931 6.66233 5.02498
2 5.76013 11.0654 11.662
2 1.45003 5.58224 3.98979
2 6.25392 2.05394 10.6572
2 2.87325 6.59139 7.8146
2 6.32097 1.77177 1.1022
2 11.5182 6.29743 8.33438
2 5.85194 11.2468 1.7183
2 10.8137 8.99933 9.4755
2 3.43559 10.7499 3.43368
2 3.20177 3.69644 8.60304
2 8.3463 1.84333 3.367
2 3.2831 9.37123 8.93994
2 8.82561 10.0299 2.48935
2 10.7781 4.32763 9.06438
2 4.10637 2.47291 2.60883
2 2.50436 3.05954 4.40959
2 8.31215 0.524392 9.05035
2 10.3862 8.80234 4.43033
2 3.66022 10.112 11.4952
2 9.99373 3.61948 4.1809
2 3.42533 2.38562 10.5484
2 2.85544 8.66957 3.86612
2 8.37862 10.3186 10.0736
2 0.302385 10.1623 0.0903835
2 0.712843 -0.133449 7.07451
2 12.624 1.94184 0.242657
2 9.15487 12.2386 7.28622
2 0.604684 11.9306 1.40181
2 11.0054 1.36435 7.76787
2 0.479618 12.6119 12.1483
2 11.0765 11.763 5.58804
2 11.2408 1.33399 2.74692
2 10.4828 11.2674 9.48946
2 1.37471 10.0993 2.0433
2 0.835613 2.93102 6.1472
2 1.67574 1.88963 1.39794
2 3.32486 12.5471 9.19366
2 11.3368 10.1868 2.82004
2 9.87426 2.11095 9.34794
2 1.36087 10.6285 10.8633
2 4.14655 0.394421 3.72294
2 12.0358 2.82926 11.2643
2 9.23524 11.3586 4.58519
2 11.0168 10.6506 11.5268
2 9.6809 1.3296 5.29733
2 1.33635 2.09838 8.27925
2 0.959559 10.7093 4.70591
1 11.7373 8.00427 8.36783
1 4.58918 11.5583 2.58047
1 2.66176 4.89306 7.77576
1 7.08283 0.87338 2.57258
1 2.65978 8.12596 7.73512
1 7.55428 10.7938 1.43986
1 11.9447 4.70155 7.84112
1 5.22451 2.99661 1.51332
1 1.44964 4.14655 4.86145
1 7.34977 1.05358 10.0689
1 11.5068 7.8429 5.16683
1 4.00569 11.1187 12.6904
1 10.9034 4.67659 5.1389
1 4.42748 1.82366 11.6775
1 2.4393 7.32218 4.52921
1 7.19635 10.5125 11.1925
1 9.82048 10.0627 3.84627
1 2.84624 10.7979 9.8617
1 3.03192 1.57786 3.53376
1 10.6818 3.259 10.3927
1 2.0078 10.0765 3.66964
1 9.98476 10.1218 10.5701
1 9.98331 2.26773 3.55732
1 2.98098 1.94601 9.13603
1 0.0987715 1.08744 1.76836
1 9.77408 0.537217 8.66383
1 12.5671 10.538 1.60383
1 0.21018 1.55875 7.17233
1 0.221041 11.03 11.7841
1 0.178927 11.1757 6.27464
1 0.24179 1.69049 12.066
1 9.57612 12.3384 5.65239
96
 Atoms. Timestep: 8000
2 -0.235414 8.12383 5.23712
2 4.74967 12.6682 10.8448
2 1.10038 4.33551 5.24013
2 9.13893 2.65028 11.2837
2 1.52536 2.91601 6.88494
2 8.04852 0.0951227 1.47225
2 0.20849 7.27954 9.05728
2 5.82493 13.101 2.16282
2 11.1289 7.27081 7.22452
2 5.22537 11.5363 -0.0183054
2 3.17907 4.71454 6.57576
2 7.87156 0.364163 11.2
2 1.54741 8.41237 6.79164
2 8.00864 11.4122 13.0443
2 9.51939 4.42132 7.57449
2 4.14854 1.401 12.5745
2 10.6793 5.71133 5.66712
2 6.72158 10.6943 11.1192
2 2.1096 6.58784 5.3125
2 6.25491 2.20357 10.4663
2 1.56373 5.86485 8.3654
2 6.04243 2.10393 0.808214
2 10.5761 6.28674 9.5868
2 6.57164 10.7361 2.26158
2 10.8725 8.7045 9.46485
2 3.72534 11.1562 2.42108
2 2.5331 3.27448 9.32185
2 7.81148 1.17166 3.55665
2 2.47708 8.45377 9.10732
2 8.53603 10.3866 2.33913
2 10.9728 3.24162 9.66909
2 3.07726 3.04873 1.03904
2 1.4837 4.56072 2.98984
2 9.09094 0.97374 9.40677
2 10.334 8.91446 4.5886
2 4.31606 9.64066 11.182
2 9.77305 2.78686 5.25405
2 3.62308 2.12299 10.6042
2 2.18257 9.35131 4.27636
2 9.20947 11.2061 10.1737
2 0.663264 10.609 13.546
2 0.191348 0.853982 5.92112
2 12.1898 0.95372 0.106199
2 11.5675 12.0394 6.70139
2 10.956 12.1799 1.64319
2 11.2838 1.36039 8.01937
2 0.89659 12.5662 12.3915
2 12.4757 10.4115 5.43504
2 10.4754 1.1397 2.58836
2 11.0542 11.4639 8.61519
2 1.21224 10.347 2.17977
2 11.7521 2.77448 6.44737
2 0.246588 0.420268 3.15718
2 1.35909 1.54042 11.4717
2 11.3239 9.44888 1.91146
2 11.3322 0.920298 10.1922
2 1.70116 9.47251 11.2992
2 3.7042 5.38068 2.96515
2 12.3954 2.29151 12.0479
2 10.2818 10.9256 4.07359
2 12.3864 10.7378 10.6632
2 10.7459 0.300075 4.42472
2 0.482318 1.86732 8.98446
2 2.16026 -0.208338 3.97727
1 11.5996 7.41581 8.74516
1 5.11795 11.2687 1.73607
1 1.95797 4.28457 7.83607
1 6.79812 1.06803 2.20639
1 1.50318 7.46251 7.99769
1 7.89353 11.4431 1.21929
1 10.2042 4.62521 9.24166
1 4.50885 2.24637 0.520676
1 2.57089 5.11926 4.64007
1 8.04273 1.92858 10.4023
1 11.4463 7.53159 5.47072
1 5.11858 11.3318 11.6495
1 10.3926 4.09515 6.11695
1 4.76533 1.13773 11.0994
1 1.40809 8.22215 5.19294
1 8.24451 11.321 11.4557
1 9.71709 9.55176 3.24452
1 2.99393 9.0983 10.4677
1 2.66327 4.67807 1.76874
1 10.9756 2.43071 11.3869
1 2.07664 11.2462 3.43055
1 10.7427 10.2258 9.93447
1 9.433 1.67561 4.11242
1 1.83029 1.8676 9.91943
1 11.994 0.647067 2.0053
1 10.4644 0.125848 8.83156
1 -0.00551057 10.0484 1.26326
1 13.0136 1.92572 7.39427
1 0.621092 10.9337 11.6493
1 0.988554 0.858731 4.61279
1 0.0668441 0.977771 12.4106
1 11.4278 11.6447 4.69152
96
 Atoms. Timestep: 10000
2 0.96339 8.84144 3.99063
2 4.56378 12.1281 11.1373
2 2.42803 3.27938 5.50113
2 7.90386 3.3348 9.51702
2 0.759002 3.38619 6.91848
2 8.62053 11.1144 1.86021
2 0.492311 8.80026 9.07376
2 6.51399 12.4481 1.92792
2 11.0488 8.09923 7.16624
2 5.15476 11.2408 0.0347459
2 2.84165 5.04707 6.55868
2 8.08621 0.734463 11.3702
2 1.87947 7.71071 6.12371
2 8.61358 11.0254 12.7633
2 9.25934 6.71837 6.82659
2 5.12992 2.02196 12.6233
2 10.392 5.33377 5.64955
2 6.54126 11.0985 10.9186
2 2.7825 6.29023 4.77399
2 6.22821 1.70135 10.7306
2 1.31915 6.37427 8.41019
2 7.64995 1.50319 0.858902
2 9.69381 8.05908 8.61875
2 6.64373 10.0936 1.47548
2 10.6865 9.06928 9.98248
2 4.46509 11.4256 3.13159
2 1.46594 3.79215 9.16059
2 8.83027 0.864404 3.36034
2 2.99168 8.48148 9.23776
2 9.42021 8.5846 1.52685
2 8.24431 5.69799 9.2618
2 5.85393 3.50576 1.91747
2 6.61063 5.89579 2.03587
2 9.40952 1.26709 9.95037
2 9.55736 7.60952 4.36938
2 4.26875 9.05862 11.4758
2 9.32229 2.58861 5.5163
2 2.79998 1.17313 10.3409
2 3.23144 8.95041 4.85753
2 8.46411 9.02045 10.3629
2 0.984397 9.96251 1.15139
2 1.31967 1.36809 6.05859
2 12.3548 1.3202 0.737219
2 11.1564 10.0628 6.74807
2 0.0495243 11.625 2.24707
2 11.1456 0.94731 7.92778
2 12.1296 11.6495 12.4959
2 12.481 10.5981 4.68864
2 11.3016 1.15216 3.38801
2 9.73172 11.4205 9.51889
2 1.75919 11.0096 3.49116
2 11.3011 2.99036 6.47922
2 1.25253 1.32118 3.18556
2 0.244219 1.82406 10.8325
2 11.0901 9.76357 2.91827
2 8.36917 4.6215 7.22684
2 1.54052 9.65644 11.4986
2 3.88815 4.69939 3.13867
2 5.83377 3.82768 8.42475
2 9.58446 9.64359 4.46564
2 11.0876 9.93524 11.9525
2 10.1015 12.0291 5.12316
2 1.00945 1.03747 8.17851
2 2.96773 0.328618 4.13972
1 11.4255 9.054 8.46523
1 5.45082 11.1922 1.59111
1 1.22743 4.70282 7.66334
1 8.30987 0.251571 2.03564
1 1.93585 7.77542 8.03364
1 8.20567 9.8621 0.678496
1 8.26128 7.23571 9.80908
1 6.05147 2.04388 0.791811
1 3.11204 4.72556 4.6456
1 7.68915 1.58422 10.0587
1 10.5231 6.93859 5.69905
1 5.15941 10.53 11.5304
1 9.72898 3.87856 6.29171
1 4.43199 1.29268 11.1351
1 2.16608 7.62326 4.67233
1 8.03567 11.597 11.4687
1 9.69603 8.55504 3.02864
1 2.84825 8.89066 11.0474
1 5.42517 5.03 2.06653
1 7.36427 4.31248 8.55065
1 3.32065 10.8654 4.03835
1 9.84991 10.1819 10.6588
1 10.2498 1.31628 4.66038
1 1.45179 2.2947 9.73055
1 0.141896 0.901427 2.12335
1 10.4529 0.393052 9.49122
1 0.565254 10.0061 2.99348
1 12.4648 1.87486 7.00418
1 0.409374 10.2148 12.6612
1 2.06545 1.80068 4.67782
1 12.0355 0.86314 12.2044
1 10.8336 10.6872 5.3354
96
 Atoms. Timestep: 12000
2 1.3337 5.69676 4.43775
2 5.83328 1.80186 11.3389
2 3.07096 1.99229 4.92651
2 5.89871 3.84186 7.90227
2 0.695905 4.00593 7.16447
2 8.89463 8.81136 0.630325
2 0.509857 7.74489 8.43915
2 5.37736 11.5732 2.98263
2 10.4483 7.15544 6.98066
2 5.00055 11.1203 12.5461
2 2.82287 4.68958 6.6087
2 7.26399 1.62526 9.59284
2 2.83587 8.24901 7.42572
2 8.84719 11.1251 9.93266
2 7.87068 5.55949 6.10462
2 6.84955 3.66727 13.1255
2 9.79487 5.15287 5.36645
2 6.92249 12.244 10.917
2 1.73608 4.37673 4.58403
2 5.86922 3.55232 10.3322
2 1.54687 6.15264 9.02099
2 7.37891 1.37294 2.04015
2 10.026 5.30642 9.30627
2 6.16435 9.84373 1.20405
2 9.94922 9.17517 8.11948
2 3.33797 9.90854 2.3265
2 1.94104 3.6986 9.59441
2 8.33305 11.65 3.56342
2 2.25045 9.46109 9.77964
2 8.86846 9.68537 2.8561
2 7.69679 6.17523 8.13164
2 7.12382 3.7044 3.01035
2 6.05301 1.36538 3.71816
2 8.40099 3.61531 8.82825
2 9.45609 8.29258 5.26761
2 4.23596 11.422 10.3034
2 9.13283 1.83008 4.79945
2 3.95063 3.11624 11.5812
2 4.15243 8.87249 5.44319
2 9.07444 7.99163 9.47438
2 1.16535 7.01852 1.89446
2 0.927535 1.2571 6.37256
2 12.0399 0.56184 0.836969
2 12.3525 10.0355 7.19045
2 10.7951 10.565 2.68745
2 10.9105 3.1689 8.05395
2 11.4583 0.284036 11.2341
2 0.87227 11.4849 5.26599
2 10.8351 0.681216 3.48889
2 9.82471 1.65559 9.98369
2 1.80782 8.44277 4.091
2 11.0738 3.15056 5.39662
2 1.02915 0.118718 3.50449
2 1.69856 2.61902 11.8659
2 11.5959 8.19661 3.38573
2 8.00118 3.64106 5.05338
2 1.10245 11.7706 9.94045
2 4.84278 3.58166 5.04084
2 4.99794 6.19372 6.44161
2 11.3801 9.7052 5.12301
2 10.751 10.0092 9.87499
2 10.6341 0.401337 6.22306
2 2.81007 0.814393 9.90945
2 3.03526 11.3199 4.83557
1 11.5351 8.72951 7.71773
1 4.73647 10.6559 1.66602
1 1.84155 4.77945 8.26847
1 6.87409 0.20532 3.25176
1 2.30209 7.84068 8.75174
1 7.58126 9.61538 1.56048
1 8.94863 6.52652 8.86369
1 7.76049 3.00974 1.66609
1 3.09593 3.56459 5.03105
1 6.68374 2.98152 9.25602
1 9.27838 6.60694 5.75073
1 5.35108 12.2213 11.2455
1 9.57074 3.47909 4.73081
1 5.5086 3.27717 12.0188
1 4.44258 7.57686 6.35185
1 8.30458 0.798372 10.296
1 10.2732 9.38998 3.99839
1 2.82746 11.1183 9.57509
1 6.31178 3.32034 4.47215
1 6.23927 5.58815 7.49779
1 3.12713 9.62473 3.90668
1 9.01968 9.52677 9.60381
1 9.53216 0.299978 4.66452
1 2.68127 2.70163 10.6804
1 11.6629 12.0934 2.5856
1 10.2408 3.55857 9.3158
1 0.842007 7.05089 3.46318
1 11.9794 2.64252 6.68304
1 11.536 11.4073 10.0801
1 1.82578 0.712133 4.79673
1 12.1384 1.58059 12.3862
1 11.6084 11.0619 6.22367
96
 Atoms. Timestep: 14000
2 2.78106 6.74942 3.37653
2 6.47226 1.23464 11.137
2 3.54756 3.16216 5.08594
2 6.54351 5.11314 7.66053
2 1.448 3.13467 8.54402
2 7.94323 8.25736 4.08475
2 0.819776 7.77649 10.0359
2 5.35218 11.7036 1.80798
2 10.2048 7.81949 5.84676
2 4.89071 9.9472 11.6203
2 3.24143 5.15934 7.27473
2 8.20648 2.46355 11.574
2 2.72373 7.13918 7.36078
2 9.30825 6.97717 7.68006
2 7.62281 6.8863 5.60473
2 6.7328 4.29105 12.1561
2 9.54516 5.33522 4.95997
2 6.86449 10.3131 9.54559
2 2.96089 5.70052 4.25767
2 6.63934 3.79763 9.34589
2 1.37402 5.76088 8.53053
2 7.56201 2.79002 2.66815
2 8.80298 5.39034 1.42433
2 6.20393 9.10499 2.15204
2 9.51671 8.77992 9.32544
2 4.15398 10.5274 2.98757
2 3.16489 4.28766 10.1645
2 7.76417 11.1959 3.70144
2 2.11002 9.11357 8.81435
2 7.65384 9.88479 1.0522
2 7.7566 8.1776 7.94875
2 7.41307 4.72813 3.77507
2 6.07442 2.65164 4.33451
2 8.05702 2.19847 8.2128
2 9.9378 7.8801 3.6337
2 4.52683 10.4609 9.2499
2 8.99112 2.47733 4.90493
2 4.65438 2.53406 10.4188
2 4.35752 8.65135 5.43031
2 10.1908 6.71396 10.9471
2 3.26793 8.9201 1.78061
2 1.0103 2.47698 5.71856
2 9.88107 2.35642 2.32533
2 10.6977 9.49297 6.86259
2 10.3303 10.6403 2.05525
2 10.9497 1.73026 7.26718
2 10.0007 11.4483 11.2455
2 1.27154 11.4301 5.10039
2 9.90989 0.984713 3.90488
2 8.96716 10.6801 7.83423
2 2.74425 8.95717 4.05215
2 10.3769 4.26847 6.8315
2 1.61936 1.60313 3.12837
2 9.82298 1.11059 9.40862
2 0.83792 8.64024 2.00796
2 7.53041 3.87611 6.0281
2 2.12169 0.834256 9.40506
2 5.18839 4.82918 5.42236
2 5.57733 7.31075 7.20833
2 10.3304 9.58864 4.75584
2 10.0172 8.73655 11.8668
2 9.82896 11.4672 6.1639
2 1.75354 2.64789 11.9228
2 3.42925 11.5896 5.00724
1 10.908 7.86036 7.30293
1 4.7768 9.91209 1.57649
1 2.28476 4.71604 8.75071
1 6.60844 1.52789 3.08511
1 1.46725 7.68845 8.58177
1 7.59477 9.53307 3.22177
1 9.7696 5.30709 11.7233
1 7.37936 4.32567 2.062
1 3.30192 4.86684 5.56043
1 7.27965 3.5966 7.85685
1 9.12721 7.22849 4.77469
1 5.75362 10.8203 10.4209
1 9.34753 3.85966 5.52154
1 6.48327 2.99604 10.8734
1 4.00305 7.8164 6.75041
1 8.16745 9.61153 8.80394
1 10.8238 9.23531 3.0351
1 2.81864 10.42 9.23177
1 6.48156 4.1231 4.70572
1 7.08676 6.72524 7.24267
1 3.90976 10.1375 4.49118
1 10.3811 8.09771 10.4288
1 8.67747 11.7766 4.87365
1 2.79871 2.38049 10.4914
1 10.9241 1.13415 2.65928
1 9.40287 1.16063 7.77618
1 2.32974 8.27989 2.7132
1 11.8015 3.12706 7.08913
1 9.57212 10.1295 12.2841
1 2.268 1.78533 4.63489
1 9.63381 1.78417 10.9409
1 11.2468 10.6621 6.17257
96
 Atoms. Timestep: 16000
2 3.23234 7.76574 4.12125
2 8.32218 9.62523 0.847519
2 1.91053 3.18196 4.90463
2 7.00249 5.52985 7.87083
2 0.897838 3.84935 8.3517
2 8.5428 7.72702 4.15942
2 1.73596 7.5128 6.69853
2 6.42916 0.830482 2.7868
2 10.4816 6.8582 5.04691
2 5.76363 9.90618 1.33923
2 3.06912 3.91669 6.68821
2 6.46821 1.96062 11.7708
2 4.74942 8.04406 6.82764
2 10.5506 6.38398 7.62188
2 8.51819 5.71672 6.14622
2 6.09387 4.00832 11.5597
2 8.88835 4.89635 4.18493
2 7.06722 9.77217 10.6103
2 2.56716 6.21242 4.52625
2 5.09493 3.44238 9.2475
2 2.68634 6.0517 8.24058
2 7.4432 2.92508 1.30179
2 8.7578 5.36006 0.866026
2 6.2976 9.76336 3.41242
2 9.43349 9.14596 9.54103
2 5.15045 11.5337 4.28269
2 2.49651 2.54235 8.95499
2 8.21529 10.9389 4.51372
2 2.96333 8.44176 8.92057
2 9.47057 8.98398 2.57998
2 8.26151 7.54343 8.45865
2 5.85123 5.03429 1.734
2 7.12155 3.48758 3.4392
2 7.03096 2.75578 8.33849
2 10.3386 7.24343 2.62332
2 5.01008 9.03159 10.8463
2 8.94092 2.06084 5.26354
2 3.61372 1.85664 10.8201
2 5.03851 10.5329 6.79548
2 9.70179 7.63127 11.1456
2 3.78653 10.6718 2.76559
2 11.8497 1.64881 6.64354
2 10.6397 3.62898 1.312
2 0.490546 8.98788 5.86804
2 10.5491 11.6974 1.48654
2 9.29863 2.74101 8.26298
2 8.68405 11.5693 11.4713
2 12.1597 11.7209 5.03513
2 9.33157 2.1917 2.58163
2 7.98876 10.8526 8.06015
2 3.20159 10.1902 4.68167
2 10.4069 3.26752 6.258
2 0.387452 2.09195 4.00202
2 7.26388 0.785317 9.57825
2 1.45494 8.74532 2.58773
2 7.16224 3.80778 6.57516
2 3.21515 10.7511 9.22395
2 4.29403 4.90494 4.07271
2 6.72236 7.70213 6.34978
2 11.2619 10.1774 3.63003
2 10.6582 10.0357 11.0819
2 9.7586 10.893 5.7791
2 0.941811 11.7903 10.5469
2 2.72393 0.6824 5.98382
1 11.4768 7.05871 6.42885
1 5.55007 11.0912 2.67311
1 2.53537 4.40192 8.15497
1 7.68473 2.05209 2.74267
1 3.3042 7.48461 7.49204
1 8.17918 9.33047 3.67193
1 9.55973 7.02266 0.765917
1 7.07335 4.79106 12.5088
1 3.10901 4.48142 5.13358
1 5.89064 3.90948 7.94663
1 9.49579 6.45527 3.83467
1 6.20482 9.45375 11.926
1 8.595 3.80209 5.66273
1 5.18508 2.84179 10.7411
1 5.91142 9.28053 6.96122
1 7.8239 9.17594 9.00923
1 11.1015 8.9409 2.11153
1 3.48348 9.32656 10.3782
1 5.61956 4.59491 3.11766
1 7.52928 6.738 7.01944
1 4.20959 11.3593 5.65127
1 10.6753 8.56454 10.436
1 8.47089 12.0529 5.75887
1 2.67031 1.09765 9.68636
1 10.9923 1.93319 2.48467
1 8.19079 1.40245 8.42906
1 2.76969 9.38122 3.2089
1 10.8664 2.63714 7.89846
1 9.65842 10.5036 12.5246
1 1.36438 1.66843 5.35346
1 7.15539 0.658533 11.1264
1 11.3091 10.3251 5.1958
96
 Atoms. Timestep: 18000
2 2.88415 5.49902 1.72717
2 9.65087 8.31124 0.987373
2 1.82048 2.7196 3.82437
2 7.04063 5.89021 7.82063
2 2.69281 3.80518 6.38681
2 8.69839 7.96825 3.50191
2 11.2561 7.47474 8.40434
2 6.79537 10.6893 2.17339
2 11.2525 7.62127 4.74138
2 5.39318 9.53938 12.098
2 4.61198 4.90396 7.54329
2 5.34568 2.46481 11.0483
2 4.04358 8.48062 8.47723
2 9.16301 7.91388 6.85885
2 7.36293 7.87892 5.68532
2 6.41157 4.36092 11.6585
2 8.73161 5.765 4.51214
2 7.03292 8.56613 9.74051
2 3.14156 3.99473 1.76693
2 5.34393 5.44712 10.0028
2 2.59378 6.27782 8.62142
2 7.25735 2.56727 1.65988
2 8.57075 4.81382 1.08491
2 5.88427 9.40277 4.13371
2 9.32795 10.157 11.5266
2 4.8925 11.1361 3.23757
2 2.73369 3.3106 8.44055
2 7.68551 10.3245 4.60759
2 4.19035 7.31401 10.5704
2 10.8106 9.48278 2.8437
2 9.58888 8.87853 9.48565
2 6.48443 4.70594 2.76161
2 6.28332 1.05035 5.52707
2 6.45303 3.31561 8.95968
2 10.6991 5.61016 2.07456
2 3.56259 10.7351 8.48726
2 8.17603 1.68291 3.87852
2 3.08991 3.36375 11.0832
2 4.88678 10.2625 5.93993
2 10.4659 6.80842 10.9815
2 4.43098 8.254 2.12078
2 11.0378 2.99574 6.41693
2 0.703809 3.11969 11.6471
2 10.8848 9.23974 6.03823
2 11.4075 11.0453 1.68095
2 9.14797 1.92679 8.02865
2 8.83329 10.4781 2.49349
2 1.3332 11.4631 5.81509
2 9.78351 1.70184 1.89542
2 8.18717 11.0108 9.45716
2 4.74952 6.31794 3.60102
2 9.31056 4.49039 7.11809
2 11.3444 2.88032 3.22761
2 6.11365 11.5954 9.80279
2 2.19748 7.83315 2.78759
2 6.80523 4.36765 5.4016
2 2.04885 1.05589 10.37
2 4.65277 3.30623 4.07788
2 6.06521 8.41023 7.52782
2 2.64622 10.2323 3.56138
2 1.73117 9.23642 9.67996
2 9.62491 11.6348 5.93625
2 11.5932 2.74047 8.72335
2 3.48449 1.80711 5.50418
1 10.9929 7.68877 6.41204
1 5.16685 9.85087 2.52448
1 3.04435 4.81295 7.58929
1 8.03161 1.27652 2.46073
1 3.21543 7.58868 9.40539
1 7.35269 8.67053 4.34884
1 9.77125 6.33428 0.897589
1 7.39702 4.10524 1.49977
1 3.31294 3.30295 3.25835
1 5.86481 4.96834 8.48825
1 9.81745 6.92963 3.86405
1 5.50074 8.07895 10.8714
1 8.48321 4.7262 5.80462
1 4.53209 4.09057 11.0206
1 5.09899 9.9528 7.78052
1 8.37858 9.3839 10.0878
1 1.29074 8.95725 3.77738
1 2.19857 10.6738 9.12984
1 5.41149 4.75939 4.55312
1 7.58663 7.20727 7.10204
1 4.64709 11.5433 4.96202
1 11.0404 7.87974 9.90917
1 8.21764 0.998098 5.17674
1 1.94973 2.6545 10.1245
1 11.4221 2.17574 1.60041
1 7.50364 1.74412 9.25193
1 3.68382 6.86101 2.49348
1 10.1423 3.13953 7.68373
1 9.93098 9.98681 1.48582
1 1.87404 2.37215 5.57225
1 4.72226 0.963536 10.8609
1 10.8466 10.8466 6.75074
96
 Atoms. Timestep: 20000
2 4.13386 9.4419 3.5098
2 8.55694 7.59635 1.57799
2 2.09559 2.59174 3.00286
2 7.80247 6.39812 6.91973
2 2.99833 5.59506 6.17289
2 8.09847 7.2587 4.05615
2 0.952371 7.52594 8.60322
2 6.37085 11.5597 1.86146
2 11.2926 7.71678 5.53269
2 5.09983 10.3836 11.1171
2 5.53713 4.95915 7.40804
2 5.08619 1.95705 11.5773
2 4.77931 7.5719 8.4959
2 9.66912 6.98335 7.74204
2 8.49768 8.45063 6.13595
2 6.34141 4.09882 0.860231
2 7.80253 5.04455 2.29807
2 5.5215 9.51957 1.50073
2 3.39917 3.75775 0.815127
2 5.55732 4.03766 10.2585
2 3.40462 5.94412 8.76333
2 8.05654 2.33837 1.27568
2 8.86793 4.77252 11.8466
2 6.13593 9.18796 3.93628
2 9.08894 9.40154 11.6882
2 5.29064 11.6625 4.08271
2 3.15302 3.42345 8.19679
2 8.03048 10.6707 4.61603
2 4.3693 7.34841 11.5788
2 10.1699 9.03072 2.80596
2 9.26921 8.53817 9.19826
2 4.03974 5.72833 2.97798
2 6.8698 1.33735 6.06507
2 8.24745 3.49699 9.61383
2 11.9652 3.46722 0.815775
2 3.92289 9.57123 9.34625
2 8.71296 1.1345 3.60248
2 3.40747 2.92299 10.5047
2 4.72074 11.0248 7.0538
2 0.850119 6.01801 11.3587
2 3.35818 9.35006 1.62308
2 0.857093 2.41137 5.44834
2 10.1926 2.04881 11.0863
2 10.306 8.9785 7.55179
2 1.14277 11.4639 9.88727
2 9.60501 2.21124 6.13186
2 8.88196 10.9229 1.54221
2 10.9947 0.857141 7.91717
2 10.7739 10.592 11.2399
2 9.251 11.6904 9.12348
2 2.7657 7.21473 4.1135
2 6.49167 5.54699 3.9433
2 1.70077 1.41429 12.1331
2 7.61954 0.912306 10.5194
2 1.41059 8.96193 3.8149
2 4.63615 6.59684 5.69426
2 3.49086 11.7306 9.43656
2 2.28037 4.62819 4.53363
2 6.71765 9.14168 7.94931
2 10.553 9.98235 5.67412
2 2.02563 9.03598 10.5684
2 8.7026 11.2285 6.42507
2 1.30433 2.40864 8.2093
2 3.6611 2.02352 5.50127
1 11.0228 7.55322 7.50452
1 5.35303 10.6044 2.85078
1 3.76225 4.78182 7.58966
1 7.93688 1.05758 2.22038
1 3.94625 6.83825 10.0365
1 7.8561 8.98094 4.52753
1 10.7586 4.78756 11.6046
1 7.80226 3.9385 0.935542
1 2.05922 2.75864 1.4068
1 6.43914 3.95924 8.78547
1 7.49233 6.7193 2.74321
1 4.46878 8.98295 12.1491
1 6.39331 5.85169 5.93299
1 4.70462 3.67535 11.5697
1 4.8659 9.40353 7.91402
1 9.53199 10.0234 10.1567
1 11.0046 9.03029 4.26033
1 2.37673 10.2943 9.66348
1 3.40658 5.76194 4.50472
1 7.96691 7.81173 7.87352
1 5.21096 0.795417 5.77446
1 1.51389 7.33065 10.3746
1 8.37128 1.13885 5.31702
1 2.96713 2.17081 9.17397
1 11.5758 0.820453 11.1218
1 8.82526 1.97499 9.85175
1 2.83804 8.80439 3.2091
1 11.1113 2.47026 6.84708
1 8.9565 9.17322 1.5496
1 2.25368 2.93203 4.72085
1 6.12849 11.6798 11.3136
1 10.0656 10.6608 7.2213
96
 Atoms. Timestep: 22000
2 4.70378 11.0416 1.49467
2 9.84587 6.4627 5.00478
2 1.7728 2.66453 2.71683
2 6.98581 7.92012 8.39966
2 3.76424 4.51905 6.00777
2 7.62608 7.81935 5.08769
2 11.147 7.27814 8.26488
2 7.76428 9.08813 0.980661
2 11.564 7.19782 3.91978
2 5.95973 9.29736 12.0992
2 4.99714 3.38154 8.08293
2 5.86283 0.237194 11.9683
2 4.06711 8.32141 8.77692
2 9.0232 8.36376 7.05506
2 6.95916 10.1878 6.66213
2 8.37378 3.86449 12.9317
2 8.63924 5.26595 3.15777
2 3.61688 9.34642 1.21656
2 3.24392 2.37675 0.901216
2 4.05691 1.52856 10.4126
2 4.33772 6.19488 8.5686
2 9.65973 2.62531 2.20719
2 10.4216 4.93632 0.874873
2 5.34589 9.37884 4.04056
2 9.62995 10.7486 11.9604
2 3.83481 10.8777 4.35614
2 2.39262 4.08947 8.15696
2 7.63413 10.5618 4.36577
2 4.33446 7.48203 11.6075
2 11.3128 8.78124 1.89236
2 8.86382 10.3218 9.22688
2 6.64897 5.25176 4.37727
2 6.39403 0.359437 5.59155
2 6.98329 2.61327 10.1579
2 1.20039 4.46686 12.2646
2 3.22483 10.7373 9.56742
2 8.26631 1.3752 3.58457
2 11.2412 5.00743 9.49038
2 4.54506 10.8445 6.93
2 12.2264 6.9361 10.9703
2 4.86007 7.24582 2.10392
2 12.1482 2.74264 4.66028
2 11.1953 2.94377 9.13878
2 10.7862 8.63827 5.65316
2 2.25087 11.623 11.6532
2 9.26141 1.59997 5.56833
2 9.59253 10.7863 2.27095
2 11.0932 0.651053 4.67077
2 11.4285 11.4172 10.0813
2 8.47334 1.18207 10.7015
2 3.95134 5.88456 4.21678
2 7.5822 5.86408 6.11678
2 0.554182 2.21237 11.8919
2 7.83354 1.53251 1.15632
2 2.43403 8.26145 3.16076
2 5.42691 5.79609 6.34082
2 11.059 11.0919 6.86649
2 3.86085 3.64974 4.07598
2 6.07941 9.6759 8.52132
2 12.2382 10.0088 4.32998
2 0.865314 9.61446 9.10658
2 9.34671 10.7879 5.45545
2 11.0856 3.05641 6.93092
2 3.46198 1.73536 5.29276
1 10.2924 7.41589 6.68069
1 4.10457 10.2335 2.83703
1 3.94863 4.51483 7.60997
1 9.00201 0.922881 2.13479
1 3.60475 7.1392 9.92525
1 6.87757 9.33326 4.94342
1 11.6585 5.36275 11.3263
1 9.46369 4.23929 2.24175
1 1.54166 3.00789 0.954706
1 5.3074 2.13925 9.41272
1 8.23397 6.36895 4.50329
1 5.02161 8.38537 12.8121
1 6.60039 6.7229 7.47136
1 3.95149 0.783184 12.0735
1 4.33665 9.89223 8.43743
1 9.89457 11.5728 10.5086
1 0.739548 8.64243 3.38553
1 1.63405 10.9688 10.1381
1 4.92508 4.81281 5.00117
1 7.89303 9.73984 8.08572
1 4.59124 11.7894 5.60881
1 12.0457 7.84732 9.36118
1 7.99273 0.776384 4.91545
1 11.7997 4.13528 8.16454
1 10.8854 2.37051 10.4224
1 7.8526 2.80873 11.643
1 3.60925 7.35843 3.49122
1 10.8702 2.22715 5.44239
1 10.5265 9.90872 1.18349
1 2.36694 2.73447 4.33714
1 6.9705 10.5027 12.3797
1 10.9074 10.4719 5.37974
96
 Atoms. Timestep: 24000
2 4.16259 10.7303 1.81843