LAMMPS data file via write_data, version 2 Aug 2023, timestep = 100000, units = metal

96 atoms
2 atom types
0 bonds
1 bond types

-0.10886436431109736 12.698327033310608 xlo xhi
-0.10886436431109736 12.698327033310608 ylo yhi
-0.11433490668151514 13.33643057168129 zlo zhi

Masses

1 28.0855
2 15.9994

Atoms # full

53 1 2 -0.55 1.3258653837650738 1.97286134900456 2.12949519527423 0 0 0
89 1 1 1.1 -0.0016673906648864145 1.1704300576412048 1.5747623777716777 0 0 0
72 1 1 1.1 4.811540629385561 0.9245883286080201 1.557201160265403 0 0 0
16 1 2 -0.55 4.4396125017115695 1.504431276220281 0.059441377743117946 0 0 0
22 1 2 -0.55 6.360391826229165 1.269788209938144 1.954026153347466 0 0 0
68 1 1 1.1 7.912974898777611 1.2834931203240876 1.4696003135619566 0 0 0
12 1 2 -0.55 8.043812349674953 1.8744114857277696 -0.042027709435727215 0 0 0
28 1 2 -0.55 8.88285110756455 2.0698818446580054 2.51843397785016 0 0 0
49 1 2 -0.55 11.56960783166824 1.9433822249411201 2.379511241967928 0 0 0
43 1 2 -0.55 12.440316054346122 1.2308472997485895 -0.03079916430618121 -1 0 0
51 1 2 -0.55 1.0808111083186647 9.868875787847198 1.4922556033047263 0 0 0
26 1 2 -0.55 3.7272097413554652 9.675877835197076 2.112872531823657 0 0 0
42 1 2 -0.55 5.737633715906018 9.219645700355452 0.7729817283785279 0 -1 1
30 1 2 -0.55 8.804614187476805 10.029955740040904 2.179190880735695 0 0 0
62 1 2 -0.55 0.24204140098622579 12.351968101199235 2.130490104433845 1 -1 0
66 1 1 1.1 4.779579553390126 10.547073082747122 1.1576790440714622 0 0 0
58 1 2 -0.55 4.4970739121007846 12.125698257773655 1.6707368721223999 0 -1 0
24 1 2 -0.55 6.340779460637671 10.918618497929916 1.6420091438268203 0 0 0
6 1 2 -0.55 8.392122539750709 12.532218296328399 1.4399775550404899 0 -1 0
70 1 1 1.1 7.91769762669292 10.988066139315526 1.2069628922575766 0 0 0
91 1 1 1.1 12.696177924708975 10.959649152380422 1.173975882918493 -1 0 0
60 1 2 -0.55 11.327413168800133 10.247277076911992 1.7480464178853286 0 0 0
45 1 2 -0.55 1.9256691352978654 0.5411980231968397 3.9772928333912336 0 0 0
83 1 1 1.1 2.45361433423195 1.9365602769773056 3.324173718845498 0 0 0
32 1 2 -0.55 3.92412418149583 1.7600755462440307 2.6526660654361907 0 0 0
55 1 2 -0.55 10.170416009215103 0.4601313913263505 4.09985860059575 0 1 0
87 1 1 1.1 10.25994058891869 1.9067164741713571 3.3690654181964605 0 0 0
11 1 2 -0.55 2.444649178800142 3.1265262260790623 4.4541995231899705 0 0 0
37 1 2 -0.55 10.464479425251461 2.882672846121841 4.659879762643594 0 0 0
19 1 2 -0.55 1.893557886414448 5.673015509421507 4.792905049757815 0 0 0
79 1 1 1.1 1.40522646390498 7.2333895639880375 4.7233672876152335 0 0 0
1 1 2 -0.55 12.606376225534904 7.013484030366364 4.518326104247268 -1 0 0
85 1 1 1.1 2.1869502121948328 9.46693915811895 2.654595040847527 0 0 0
39 1 2 -0.55 2.0282180375067833 8.040847218300193 3.436198262034333 0 0 0
81 1 1 1.1 10.24542958665646 9.861762281647861 2.9285800161192364 0 0 0
75 1 1 1.1 11.115202889913375 7.5807588619620585 4.772662157969436 0 0 0
35 1 2 -0.55 10.461448013796208 8.37795914874333 3.5363867541676366 0 0 0
94 1 1 1.1 0.9166233675708586 12.108833779316402 3.6804463119817226 0 -1 0
64 1 2 -0.55 1.742430208358171 10.69346091966612 3.657322450635445 0 0 0
17 1 2 -0.55 10.304611479817671 10.775133058718003 4.302393502804964 0 0 0
48 1 2 -0.55 12.514482707829703 12.089997792723176 4.771757349042335 -1 -1 0
96 1 1 1.1 10.90142602431526 12.128833288711812 4.997535395131069 0 -1 0
8 1 2 -0.55 11.562969424660118 1.6320062655618413 6.753350829402718 -1 0 0
90 1 1 1.1 11.071237293141726 0.5022991021136941 7.946209992945599 0 0 0
33 1 2 -0.55 0.004629046196413189 3.6448352457255533 5.260436272387065 0 0 0
73 1 1 1.1 1.55857822588785 4.169898737606255 5.370490140124476 0 0 0
3 1 2 -0.55 1.834874050897413 4.242527885364413 6.9815516213319855 0 0 0
77 1 1 1.1 11.42261604361793 3.0899606672182447 5.973986383705206 0 0 0
15 1 2 -0.55 10.883528352446097 4.256916751095223 6.98743135942421 0 0 0
13 1 2 -0.55 1.689458142625404 7.9724561668245535 6.167661909219794 0 0 0
69 1 1 1.1 1.4059888778936016 7.996283676403838 7.785583786425727 0 0 0
9 1 2 -0.55 10.650746797827653 7.9684316351045315 6.275179513873398 0 0 0
65 1 1 1.1 11.042077514380557 8.022255786229113 7.870436599074868 0 0 0
47 1 2 -0.55 10.61049144676903 12.430179383181395 6.571204010535466 -1 -1 0
52 1 2 -0.55 2.1278144755644446 1.6027908511520952 9.139357567380685 0 0 0
92 1 1 1.1 1.336694293326726 0.3021767072207326 8.594791811961098 0 0 0
56 1 2 -0.55 10.161026775997943 1.5142695327035909 8.889665120565807 0 0 0
44 1 2 -0.55 12.528942208977748 0.2505839058478143 8.64165188227545 0 0 0
88 1 1 1.1 2.282110582591852 2.6908789216022155 10.356881472146005 0 0 0
63 1 2 -0.55 2.2251874559334124 4.133236007932911 9.607826801314202 0 0 0
67 1 1 1.1 1.4716994667662138 4.947415556282353 8.407027545239606 0 0 0
84 1 1 1.1 10.103189724307708 2.5891294090203356 10.131685947139873 0 0 0
31 1 2 -0.55 10.281654233897452 4.090245039536664 9.528089270254844 0 0 0
5 1 2 -0.55 -0.10684915241265358 4.809813122989668 8.805825122651436 0 0 0
27 1 2 -0.55 1.8302850361971974 6.533517074646485 8.369511225573131 0 0 0
71 1 1 1.1 11.121197003685783 4.970394282429087 8.432553575414248 0 0 0
23 1 2 -0.55 10.695346227326658 6.540128014579341 8.465049237279608 0 0 0
29 1 2 -0.55 2.3045505400335924 9.07694254058743 8.634192586672544 0 0 0
7 1 2 -0.55 12.63788383934788 8.322356835801653 8.09229012401972 -1 0 0
25 1 2 -0.55 10.180487994908276 9.215708731821856 8.592226108877876 0 0 0
54 1 2 -0.55 2.0809530014870523 11.676947705466416 8.69417481553783 0 0 0
82 1 1 1.1 2.3338317502564725 10.373191300362793 9.644371578213624 0 0 0
36 1 2 -0.55 3.7719163448899997 10.38261030640253 10.41797216394508 0 0 0
40 1 2 -0.55 8.783989044014366 10.534822420770299 10.409575050734773 0 0 0
86 1 1 1.1 10.157968009209842 10.581665911422963 9.515118817111714 0 0 0
50 1 2 -0.55 10.24715418414491 11.926359414642882 8.550539009745453 0 0 0
57 1 2 -0.55 12.689869147071148 0.021052510577016847 11.078510546550362 -1 1 0
46 1 2 -0.55 1.0688303076218657 2.4321735950204775 11.433679943574138 0 0 0
78 1 1 1.1 4.662463593984325 1.4327689264549948 11.907793754822507 0 0 0
2 1 2 -0.55 4.356584092974068 -0.0657215973942499 11.383685307820162 0 0 0
20 1 2 -0.55 6.200475971717267 1.7916680807044973 11.531537022930587 0 0 0
74 1 1 1.1 7.773749068175396 1.5449045955156813 11.849951310788045 0 0 0
4 1 2 -0.55 8.198035982905825 0.0006091349217441783 11.53403706745544 0 0 0
34 1 2 -0.55 8.660223813149395 2.48849861499685 10.867415765067326 0 0 0
95 1 1 1.1 12.581457922830229 1.4899778422937346 11.789373342143628 -1 0 0
59 1 2 -0.55 11.252874454931476 2.285266823372332 11.248485637234573 0 0 0
38 1 2 -0.55 3.688521854108761 2.4937102089820944 11.151456919659394 0 0 0
21 1 2 -0.55 1.1900740004754677 10.423026195225747 10.815516879107673 0 0 0
93 1 1 1.1 12.645574190350269 11.204810233586661 11.371972145180939 -1 0 0
10 1 2 -0.55 4.28662302626437 10.718490640056547 13.03874726552023 0 0 -1
76 1 1 1.1 4.692315025414209 11.158258305939059 11.520189830487373 0 0 0
18 1 2 -0.55 6.276599023354482 10.894309141890142 11.19991601119943 0 0 0
80 1 1 1.1 7.84132280710345 11.210719385952615 11.549719001153516 0 0 0
14 1 2 -0.55 8.117433290263847 10.653334972639703 13.071180306985374 0 0 -1
61 1 2 -0.55 11.37912709115482 10.51613986735683 10.594654898870694 0 0 0
41 1 2 -0.55 12.422551805743637 11.252797887883819 13.026189040815119 -1 0 -1

Velocities

53 0.9498553617316638 0.29690438087921855 1.5580927654665433
89 -0.37619920967886766 -1.6861903045486761 0.1324070902997581
72 -0.16980506658340894 0.0743264006081338 0.6704389386324593
16 1.2194054806161585 -1.2729295266588034 -0.00757997047137886
22 -1.4689352589080944 -0.223067133564743 -1.0952875981368115
68 -0.17767273353297497 -0.659160262517593 -0.6911300893484895
12 0.6874330300371293 0.877106053012651 -2.060739530486997
28 0.2921570397455814 -0.9165083235626026 1.110195179805556
49 -0.2112708360004553 -0.3945497882031098 2.041752737083431
43 2.1216313950324537 2.573019857605889 -1.9172204113164926
51 -0.6178377351522781 -1.0262493886733643 -1.110173359173695
26 -1.5160906666555685 0.12083500844725702 0.7065711366852324
42 0.35183328290914406 -1.0260872700410857 -1.1125973272031122
30 0.4384674688948603 0.9559491988220953 2.5034035876478815
62 -2.0219712972785127 0.31352178353374627 0.07132952820853788
66 0.46960998057879355 -0.16814205049098316 0.06540913447222396
58 1.2259114384751362 -0.5032027953230309 -1.3732154553690699
24 0.6455195824703986 -0.5458078591356704 0.5432787150538381
6 0.4194030065964038 0.1018741024571924 -1.125205370085202
70 -0.9229209927098533 0.21273990314328403 -0.24564584212301688
91 -0.9319908873519372 1.0405915678325008 -1.1155345997387371
60 0.5871559995086524 -1.170147277743071 1.0449532096357566
45 1.5478780007815511 0.7249403844027126 0.20194028925946747
83 0.6633833286344774 0.24615681498328407 -0.16454874583188933
32 1.1988173459902547 1.5133829200249231 -0.830504613502753
55 -0.7062053564701415 0.045526261086367474 1.9338627477705352
87 -0.6637674057270125 0.6673734860856111 -0.2690215417063064
11 -0.2003118433542391 -0.34379872783156523 0.6994297563551268
37 0.8066881359426601 -1.4004187039215472 1.7143498455456443
19 0.7657448578777617 -1.301211777649159 0.03838557699251871
79 -0.37948958485748135 0.334374403122361 -0.5383328535038464
1 -1.394619908647735 0.8688810646546198 0.3935625686937264
85 -0.49691630071811166 -0.239405401620653 -0.5238508399678355
39 -0.49120276150368614 -0.3351695619657912 -0.5609675312356549
81 0.1270822271371119 -0.052024619558875974 0.35738683096348667
75 0.0727291483976328 -0.47323513693070096 -1.5239907339654222
35 -0.7162737956957729 -1.074301244141607 1.7802247577760086
94 0.7167950050932407 0.3956587735404648 0.509061438467626
64 -0.29914120115349296 -1.1221809277331711 -0.12330297094434765
17 -0.2572819024969368 -0.9432892788839752 -1.2702174260785406
48 1.3637516160211864 0.21143407022616686 -1.635095353353604
96 0.5654214781575901 0.4109646199872618 0.05160127828484499
8 -1.12370528793651 0.8021509004785305 1.6376232183546997
90 -1.6894506410009054 -0.9807001601414618 -0.0050319197978159515
33 0.2779394127395052 -0.4599526285630922 -0.4858586294326788
73 0.24543394704892058 -0.13844877722309368 0.39337532583357
3 -0.9522050181042225 0.7054785402585495 1.8572039448002355
77 -0.2850360542710141 0.18380771786100258 -0.9307282075511749
15 1.5592656168965484 0.8786819619546049 0.541193008644106
13 -0.7843998305694064 -1.0556606743483448 0.41983645508880446
69 0.48711876079533173 0.12777368596530875 0.7236098070430929
9 -0.0033807355391010834 -1.4900870332085594 -0.31690003960682267
65 0.5933476066246668 0.5142192203512934 -1.5113381228403955
47 0.7504244226629622 1.5710389594451433 -1.3864383073736373
52 1.862105790773816 0.823422464919831 0.2061002810566124
92 0.7170776144971215 -0.20617087926514613 1.1888463731995578
56 0.567789978851619 0.40776520018124257 0.2548893118760044
44 0.32471101001367614 1.4994560620747823 0.4833160007743075
88 -0.4252612067832725 -1.597344182648391 0.319133936746211
63 1.1963792180047497 1.3451301602778256 -0.5832090749436506
67 -0.11379207923665034 -1.4409878431780299 0.11200270963943207
84 1.1819923763094344 0.9379970860522628 -0.5661709083149421
31 0.7687307728063765 0.7319784125502585 -0.45719886217874667
5 0.0797452481279702 0.451906208218794 0.4563704831873731
27 -0.7352419978155333 0.7757801700775074 0.6771002348313829
71 0.6595474922517961 0.48666563913877475 -1.0272452853368814
23 1.3805210964489858 -0.2584396330715733 0.08444088162798394
29 0.38657779297963674 1.1502451624226055 -0.6903408698614589
7 0.013087887806305471 0.9839066043353998 -0.3270667774083434
25 -0.08484130055602518 0.14640508193681037 -0.42613696403853546
54 -1.7907979737904525 -0.7054428648606931 2.7232048582745825
82 -0.46200879660203614 0.11808481862798874 -0.9838420650466724
36 0.12646414497299685 1.3718494618905757 1.9559919849088288
40 -1.0809390241445673 0.023279254101006376 -0.43008452416264276
86 -0.1671040309239735 -0.8074346514952168 0.029963617730720038
50 -0.3661203281731088 1.8952929144058235 0.6541177521546178
57 0.9696257497512195 -0.12414614798992736 2.361964529956538
46 -1.4384465127347503 -1.4373485416730298 1.6998814866238938
78 0.6553908378653205 0.8803693498978007 0.8715056103800074
2 1.4617751401301247 -0.9915952412225602 0.30135839914039564
20 -0.6784016960794638 0.856949496276353 -0.8856638023411149
74 -1.2694638944871866 -0.6815744367958569 -0.9823399853489417
4 1.5044584976053479 -0.6829510004302095 0.5321705108734954
34 -1.7013129871318167 0.3799036027271771 0.2891127849767851
95 -0.8489096734600297 1.3985067566683413 0.26905183040915426
59 -1.1464725871323875 -0.17507771495906596 0.31097432687367077
38 -0.1386083482330764 0.2849241809220258 -0.9988044543748033
21 -0.6120650626131962 0.04425435667399749 -0.9622353225089606
93 -0.3937719046561552 -0.5441612175514938 -0.450104300090523
10 -0.2282498340387131 -1.0406958368361574 0.6348121336544452
76 -0.2545679462303056 -0.0038737407992429974 -0.7416824104276949
18 -0.39561280934155096 -0.3779768317186652 -0.39146871153139673
80 0.3867238385007882 0.43797283777862156 0.08674115040556918
14 -0.13596120959430816 -0.6470418785958474 1.0063742739982349
61 -0.11263701689268775 -1.1556351110541239 -0.3498393836400104
41 -0.07593107851065688 0.5940724652719596 -1.1234025320567675
