96
 Atoms. Timestep: 0
2 0 7.95642 4.74695
2 4.63304 0 11.358
2 0 4.63304 4.74695
2 7.95642 0 11.358
2 0 4.63304 8.47514
2 7.95642 0 1.8641
2 0 7.95642 8.47514
2 4.63304 0 1.8641
2 10.7421 8.43088 6.61105
2 4.15858 10.7421 0
2 1.84736 4.15858 6.61105
2 8.43088 1.84736 0
2 1.84736 8.43088 6.61105
2 8.43088 10.7421 0
2 10.7421 4.15858 6.61105
2 4.15858 1.84736 0
2 10.5201 6.29473 5.04003
2 6.29473 10.5201 11.6511
2 2.06934 6.29473 5.04003
2 6.29473 2.06934 11.6511
2 2.06934 6.29473 8.18207
2 6.29473 2.06934 1.57102
2 10.5201 6.29473 8.18207
2 6.29473 10.5201 1.57102
2 10.1594 8.65935 9.20274
2 3.93011 10.1594 2.59169
2 2.43004 3.93011 9.20274
2 8.65935 2.43004 2.59169
2 2.43004 8.65935 9.20274
2 8.65935 10.1594 2.59169
2 10.1594 3.93011 9.20274
2 3.93011 2.43004 2.59169
2 2.43004 3.93011 4.01936
2 8.65935 2.43004 10.6304
2 10.1594 8.65935 4.01936
2 3.93011 10.1594 10.6304
2 10.1594 3.93011 4.01936
2 3.93011 2.43004 10.6304
2 2.43004 8.65935 4.01936
2 8.65935 10.1594 10.6304
2 0 10.703 0
2 1.88643 0 6.61105
2 0 1.88643 0
2 10.703 0 6.61105
2 0 0 1.872
2 0 0 8.48305
2 0 0 11.3501
2 0 0 4.73905
2 11.2706 2.31295 2.18973
2 10.2765 11.2706 8.80078
2 1.31887 10.2765 2.18973
2 2.31295 1.31887 8.80078
2 1.31887 2.31295 2.18973
2 2.31295 11.2706 8.80078
2 11.2706 10.2765 2.18973
2 10.2765 1.31887 8.80078
2 1.31887 10.2765 11.0324
2 2.31295 1.31887 4.42131
2 11.2706 2.31295 11.0324
2 10.2765 11.2706 4.42131
2 11.2706 10.2765 11.0324
2 10.2765 1.31887 4.42131
2 1.31887 2.31295 11.0324
2 2.31295 11.2706 4.42131
1 11.0086 7.83654 8.10972
1 4.75292 11.0086 1.49867
1 1.5809 4.75292 8.10972
1 7.83654 1.5809 1.49867
1 1.5809 7.83654 8.10972
1 7.83654 11.0086 1.49867
1 11.0086 4.75292 8.10972
1 4.75292 1.5809 1.49867
1 1.5809 4.75292 5.11238
1 7.83654 1.5809 11.7234
1 11.0086 7.83654 5.11238
1 4.75292 11.0086 11.7234
1 11.0086 4.75292 5.11238
1 4.75292 1.5809 11.7234
1 1.5809 7.83654 5.11238
1 7.83654 11.0086 11.7234
1 10.1088 10.1088 3.30552
1 2.48067 10.1088 9.91657
1 2.48067 2.48067 3.30552
1 10.1088 2.48067 9.91657
1 2.48067 10.1088 3.30552
1 10.1088 10.1088 9.91657
1 10.1088 2.48067 3.30552
1 2.48067 2.48067 9.91657
1 0 1.60471 1.57853
1 10.9848 0 8.18958
1 0 10.9848 1.57853
1 1.60471 0 8.18958
1 0 10.9848 11.6436
1 1.60471 0 5.03252
1 0 1.60471 11.6436
1 10.9848 0 5.03252
96
 Atoms. Timestep: 2000
2 -0.0444066 7.86251 5.00319
2 4.5196 -0.165671 11.3598
2 12.7778 4.26078 4.32126
2 8.08151 12.4605 12.3385
2 12.0345 4.39603 8.74622
2 8.79149 12.5716 1.40894
2 12.7142 8.00259 8.89606
2 5.46166 12.5916 1.70638
2 11.9803 8.08955 6.69001
2 4.17046 11.0756 13.3597
2 0.995215 4.7628 6.86422
2 8.20652 1.20037 0.00666759
2 1.81529 7.5689 7.15885
2 8.27053 10.4682 13.6357
2 11.1556 5.41882 11.2984
2 4.18654 1.46096 0.279416
2 10.7938 6.57547 4.57702
2 6.2525 10.5632 11.7201
2 1.69261 6.17526 5.2171
2 6.00024 0.827136 12.3242
2 0.861503 5.99943 8.9705
2 6.30739 1.42329 1.78458
2 10.6796 6.33417 8.33787
2 6.57469 10.4524 1.34814
2 9.98208 8.78449 8.68806
2 3.98372 10.1078 2.49928
2 1.88235 3.6921 9.63829
2 9.20802 1.62615 2.33831
2 1.79887 8.93207 9.26807
2 8.95683 10.134 2.79061
2 10.4356 3.79643 10.3858
2 3.72108 2.00423 2.60839
2 2.27536 3.6246 4.58343
2 8.14347 2.25783 10.7935
2 9.89251 9.26257 5.09205
2 2.99831 10.2265 11.0574
2 10.5862 4.01624 3.24015
2 3.4129 1.47651 11.0801
2 1.94197 9.33756 4.3287
2 8.91715 10.2613 11.0336
2 -0.070685 10.7636 12.8194
2 2.01894 0.62559 6.14761
2 -0.211636 1.68365 12.8137
2 11.2088 0.315011 6.33677
2 0.244239 -0.23075 1.13369
2 -0.117671 0.059606 7.39997
2 0.0803405 12.5762 11.8064
2 0.0506397 -0.0674721 4.22437
2 11.9586 1.25712 2.11561
2 10.0828 12.0338 8.52518
2 1.42027 10.9713 2.00415
2 2.37931 0.94463 9.15053
2 1.24097 2.17533 1.53492
2 1.3867 12.1932 8.63235
2 12.1302 11.2399 1.09299
2 10.7392 1.36325 8.63583
2 0.579913 10.5479 10.434
2 1.57372 1.05789 3.18737
2 11.534 1.5711 10.5078
2 11.0878 11.4626 4.44175
2 11.2611 11.2528 10.1384
2 11.0653 1.6091 4.07801
2 1.12193 1.94165 10.699
2 2.0932 11.5573 4.11078
1 11.3755 7.83743 8.16085
1 4.96258 11.1069 1.32147
1 0.704726 4.48832 8.55417
1 7.85243 1.00905 1.79604
1 1.50688 7.5122 8.63387
1 8.05986 11.053 1.33465
1 10.8975 5.18503 9.61453
1 4.70114 0.870283 1.7684
1 1.04698 4.67066 5.27797
1 7.66453 0.960285 12.0077
1 11.4034 8.44037 5.00375
1 4.31734 10.9436 11.6592
1 11.2222 4.97149 4.24834
1 4.45148 1.10762 12.3327
1 1.68513 8.0478 5.39912
1 7.7042 10.8442 11.877
1 9.32542 10.6831 4.32299
1 1.98758 10.5158 9.51559
1 2.25614 2.47216 2.81626
1 9.90344 2.08229 10.3914
1 2.67528 10.3776 3.21955
1 9.85669 10.4102 9.60125
1 10.6283 2.56649 2.79294
1 2.69495 2.47439 10.1349
1 -0.0260821 1.31648 0.791167
1 11.5172 0.00615587 7.85011
1 0.648954 11.4969 0.310156
1 1.4118 0.437303 7.7406
1 12.5797 11.0624 11.3099
1 1.75115 0.123901 4.61184
1 -0.26466 0.924282 11.2434
1 11.5385 -0.161116 4.82273
96
 Atoms. Timestep: 4000
2 12.4932 7.28749 4.11335
2 4.55176 12.4304 11.3527
2 11.932 4.21153 4.65696
2 8.15216 -0.237166 10.9513
2 0.280673 4.48624 8.89327
2 7.4304 0.656622 1.4157
2 -0.180232 7.91568 8.26272
2 5.12485 -0.00667358 2.02327
2 10.81 7.5324 6.75049
2 4.45238 11.1488 13.2682
2 1.21554 4.31342 6.29956
2 8.02847 1.57989 13.3761
2 1.21195 8.48384 5.71681
2 8.45659 12.1502 13.2376
2 10.7461 4.1472 6.98319
2 4.35203 1.05565 0.0635507
2 10.6888 6.12237 4.42055
2 6.39818 10.7102 11.649
2 0.972188 6.18695 5.04009
2 6.12958 1.91462 11.8239
2 1.54414 6.49797 7.38304
2 6.24055 2.75675 1.18967
2 11.4562 6.13985 9.00372
2 6.76964 10.9008 1.23835
2 10.7678 8.90812 9.42821
2 4.20479 10.506 2.21499
2 2.2914 3.96025 9.03015
2 8.95027 2.17237 2.36541
2 1.85591 8.86699 8.90985
2 9.56013 11.2414 2.1983
2 11.1412 3.72431 9.40178
2 3.95834 1.94386 2.66749
2 0.890966 3.82637 3.40382
2 8.71605 2.42166 10.6661
2 10.3803 9.24231 4.19931
2 3.33849 10.3631 10.9977
2 9.66757 2.80743 4.98986
2 3.67817 2.12857 11.0869
2 2.23436 8.94981 3.74809
2 8.95063 10.4556 10.7091
2 -0.0475085 11.406 -0.050731
2 2.12077 0.167402 6.93766
2 12.3305 2.18912 -0.0243426
2 11.6537 12.7321 6.95825
2 12.4247 12.6815 1.53665
2 0.481039 12.8498 8.14062
2 0.262414 0.198067 12.0426
2 0.157752 -0.156452 4.84584
2 10.963 1.26248 2.54725
2 11.4221 10.9718 9.21432
2 1.08647 10.4213 2.32994
2 2.37656 1.17842 8.77147
2 0.324094 1.63849 2.51477
2 1.82349 10.9081 8.91416
2 11.4876 10.5129 1.96772
2 10.9515 1.31934 8.76447
2 0.664082 10.7498 11.1826
2 2.04577 1.1375 4.18079
2 11.5623 2.20806 10.9881
2 10.8548 11.5114 4.34771
2 11.7647 10.6588 11.5759
2 10.7355 0.93921 4.99688
2 0.640089 2.51779 10.9125
2 2.3552 11.2885 4.49562
1 10.9163 7.77731 8.40792
1 5.00789 11.2369 1.08711
1 1.65324 4.95538 7.84671
1 7.75494 2.24542 1.16271
1 1.1589 8.07098 7.42018
1 8.26072 11.8168 1.43231
1 11.5304 4.67483 8.41672
1 4.956 1.47931 1.38951
1 0.656201 4.75098 4.63975
1 7.68766 1.09034 11.7658
1 11.1281 7.50026 4.89363
1 4.68241 10.8216 11.6654
1 10.6496 4.3912 5.31798
1 4.70192 0.982429 11.9014
1 0.928141 7.62155 4.27492
1 8.03553 11.2477 11.675
1 10.4314 10.3404 3.1686
1 1.9752 9.92293 10.1532
1 1.97706 2.43331 2.91695
1 10.1549 2.54318 9.91762
1 2.7053 10.3317 3.09746
1 10.3922 10.1368 10.622
1 9.89235 1.72265 3.83787
1 2.07048 2.26057 9.89471
1 12.2518 1.11158 1.61876
1 11.8927 12.6587 8.60277
1 -0.197477 10.8887 1.47393
1 2.03149 12.5939 8.34766
1 12.7651 11.7816 11.9281
1 1.66629 -0.176185 5.22585
1 -0.203086 1.83256 12.004
1 11.645 12.6519 5.38209
96
 Atoms. Timestep: 6000
2 -0.0781945 7.44841 4.75881
2 4.19958 0.454176 11.7113
2 0.373906 4.86542 4.51287
2 7.66648 0.0387294 11.6893
2 0.163362 4.17232 8.16831
2 7.92455 12.6385 2.00358
2 12.7132 8.413 8.10239
2 4.16107 12.7774 1.7415
2 11.1276 7.60409 6.71384
2 4.15303 11.7754 13.1768
2 2.00378 5.61424 6.45563
2 8.00474 1.9559 0.126377
2 1.92685 7.95558 6.65836
2 8.36898 10.837 13.1251
2 11.2033 4.35727 6.74863
2 3.54054 1.39417 -0.166213
2 11.4097 5.91705 4.61368
2 6.34428 11.3992 11.1069
2 2.00946 6.43432 4.21795
2 5.89541 2.15107 11.6412
2 1.99621 6.70556 8.34274
2 6.05617 1.03743 1.44334
2 11.2327 5.60855 8.95744
2 6.38586 11.1801 0.524781
2 11.0357 8.78607 9.17163
2 3.18125 10.4096 1.80027
2 2.7941 3.79557 8.50035
2 8.80175 1.99195 3.04457
2 1.99887 8.68884 9.30106
2 8.58364 10.2049 2.16099
2 11.2235 3.55712 9.84877
2 3.29523 2.08553 2.22934
2 2.69082 3.93085 3.97753
2 8.89661 2.13294 10.56
2 10.3037 8.60253 4.2411
2 3.31703 10.6968 11.3565
2 11.8156 3.18427 3.78942
2 3.11573 2.87372 11.2428
2 1.83375 9.44252 4.16782
2 9.1134 10.3198 10.4174
2 12.6573 10.5816 -0.241911
2 1.49061 12.2849 7.04688
2 13.1323 1.86773 13.29
2 10.6638 12.061 6.81456
2 -0.103793 12.8923 1.43271
2 12.8261 0.438189 8.51564
2 0.074298 12.5992 11.9674
2 12.7189 12.9283 5.64836
2 11.2187 1.44829 1.79285
2 10.5562 11.6031 9.0022
2 0.87766 10.0879 2.22249
2 1.76973 1.13756 9.36639
2 0.597651 2.36894 1.78557
2 1.93821 11.3769 9.21552
2 11.0434 10.7507 2.31364
2 10.98 1.68373 8.58743
2 1.04344 10.1918 11.481
2 1.46723 1.37223 4.50829
2 11.4713 1.08922 10.7721
2 9.99482 11.241 4.41393
2 11.5091 10.3592 11.2305
2 10.4487 0.861696 4.4774
2 0.941714 2.21977 11.0613
2 1.6776 11.5055 4.35852
1 11.4817 7.36289 8.51681
1 4.67456 11.3977 1.09255
1 1.65111 4.93332 8.08286
1 7.73559 1.17744 1.65086
1 1.07522 8.00161 8.18986
1 7.88095 11.2117 1.1864
1 11.6011 4.20649 8.39568
1 4.3823 1.1657 1.31337
1 2.12559 5.16175 4.8175
1 7.55851 1.9403 11.9087
1 11.2913 7.5371 5.18046
1 4.67743 11.7476 11.4653
1 11.7982 4.44982 4.94994
1 3.99891 1.93127 12.2467
1 1.53616 7.94871 4.94741
1 8.07715 11.3396 11.3865
1 9.86893 10.0498 3.33766
1 2.21304 10.1757 10.2607
1 2.02904 2.38425 3.10731
1 10.4351 2.27059 10.0543
1 2.24765 10.5268 3.1221
1 10.6721 10.3664 9.81802
1 10.7856 2.06612 3.18594
1 2.32818 2.56397 9.71936
1 12.5963 1.49912 1.05202
1 11.1784 0.0667689 8.08726
1 12.6273 10.9575 1.28744
1 1.29076 -0.225035 8.55617
1 -0.145527 11.0422 12.0266
1 1.39239 -0.135804 5.42875
1 -0.0370378 1.17378 11.7948
1 11.0213 12.4096 5.30458
96
 Atoms. Timestep: 8000
2 -0.00521103 6.66567 4.01853
2 4.97486 -0.0183087 11.673
2 11.8514 4.83516 4.99045
2 8.75164 -0.109683 11.5593
2 12.5163 3.75876 8.32473
2 8.30318 12.6044 1.23319
2 0.237126 6.87027 8.44327
2 3.996 0.0933611 1.34924
2 11.7266 7.95405 6.64045
2 4.74309 10.8618 0.314795
2 0.763071 4.83659 6.26163
2 8.58533 1.56538 -0.0744991
2 2.26455 7.47626 7.83625
2 8.00558 10.7644 0.0989141
2 9.50276 4.74542 6.72486
2 3.85346 2.07244 13.1197
2 10.1729 6.7758 5.10792
2 6.41474 11.3525 12.3282
2 1.54729 6.70987 5.26181
2 6.73633 1.51519 11.9429
2 2.01869 5.35484 9.05425
2 6.26626 1.8614 1.16875
2 10.6323 6.28328 7.97813
2 5.84425 10.4953 2.01314
2 11.3053 9.27092 8.8341
2 3.36618 10.621 2.81541
2 2.64158 3.51688 8.25839
2 8.4586 2.0421 2.58767
2 2.18844 8.23964 10.2235
2 8.98638 10.0728 2.13934
2 9.67723 3.79891 8.99047
2 3.16893 2.59254 1.9548
2 1.59256 4.26898 3.76656
2 9.28463 2.24346 11.1868
2 11.084 9.13293 4.37328
2 3.50801 10.6126 11.2033
2 9.7367 3.95414 3.95885
2 3.97672 1.95103 10.1409
2 2.47508 9.34148 5.27412
2 8.8946 10.2477 10.9398
2 12.5762 10.6805 13.3717
2 1.88125 12.433 6.34609
2 0.524696 1.46451 -0.0854465
2 11.3889 0.0944172 6.27765
2 12.1774 -0.223263 1.76986
2 0.0552792 -0.0889645 8.26487
2 0.595927 -0.132033 11.4732
2 12.7564 0.668219 4.16458
2 11.5262 2.06791 2.14669
2 10.3239 11.4495 8.68797
2 0.9767 10.2948 2.22319
2 2.03441 0.962768 8.26113
2 1.08589 1.92804 2.85719
2 2.43184 11.0166 8.55607
2 11.3656 10.0405 2.03511
2 10.2746 1.20854 8.61003
2 1.61935 10.4982 10.4797
2 2.11632 1.87752 4.50351
2 11.7898 2.27393 11.4313
2 10.7116 11.5265 3.67628
2 11.6985 10.6108 10.8121
2 10.4208 1.80294 4.12227
2 1.67049 1.91522 10.813
2 1.62683 11.6709 4.17178
1 11.464 7.55432 8.47543
1 4.46001 11.4523 1.77988
1 1.30026 4.2713 7.71603
1 7.77665 1.32751 1.2209
1 1.66505 6.82231 9.18564
1 7.56308 10.9416 1.72199
1 9.5578 5.20757 8.30506
1 4.47366 1.94552 1.31701
1 0.763039 5.30554 4.64321
1 8.32273 1.35034 11.8791
1 11.5525 7.60088 4.89015
1 4.76094 11.1193 11.968
1 10.0821 5.01918 5.19656
1 4.66319 1.64517 11.7092
1 2.14904 8.00939 6.12421
1 7.98894 11.261 11.8899
1 10.1978 9.8971 3.43164
1 2.84057 10.022 9.70635
1 2.42059 2.95242 3.235
1 10.7883 2.4079 9.85698
1 2.03889 10.1254 3.73549
1 10.2589 10.1127 9.89138
1 10.0022 2.62676 2.92602
1 2.687 2.06111 9.30227
1 0.153218 1.48471 1.61367
1 11.0082 12.6852 7.87273
1 12.5129 11.1302 1.51889
1 1.53215 12.3819 7.97031
1 0.24968 11.1736 11.7256
1 1.33755 0.381382 4.85977
1 0.526916 1.56946 11.7276
1 11.0321 0.199712 4.52096
96
 Atoms. Timestep: 10000
2 12.7297 6.46499 4.22543
2 4.87727 0.024119 11.9891
2 12.3963 4.56422 4.73094
2 7.17959 12.6345 11.4113
2 12.8805 5.0877 8.13544
2 7.80568 12.8402 0.958258
2 12.4537 7.46525 8.31455
2 4.71016 0.168658 1.94072
2 11.1042 7.81034 5.78008
2 4.33585 11.6523 0.0736403
2 1.70989 4.62823 6.06021
2 8.40232 1.52047 12.8155
2 0.837111 8.25117 6.87789
2 8.50529 10.2827 12.871
2 11.1878 4.1171 6.32535
2 4.82309 2.22612 -0.0407167
2 10.708 6.07761 4.7799
2 6.33571 10.3202 11.9473
2 1.89579 6.44658 4.98847
2 6.30467 1.7865 11.1059
2 2.02127 6.79224 7.91791
2 6.45266 1.75816 1.24974
2 10.3931 6.19477 8.22823
2 7.00965 10.5773 1.75321
2 9.79299 8.47582 8.96016
2 3.78391 10.1361 2.64729
2 1.61721 4.18348 8.82592
2 9.54283 1.65585 1.65172
2 2.13475 8.84947 9.0944
2 9.0728 11.153 1.91408
2 10.8792 3.02601 8.77854
2 3.89911 2.39556 2.83694
2 2.05399 3.96963 3.89518
2 9.16885 1.76639 10.4177
2 10.7804 8.55919 3.14793
2 3.69227 10.7048 10.9338
2 9.89197 3.41481 4.19672
2 3.44643 2.82605 11.3901
2 1.39955 8.81428 4.36474
2 8.59868 10.6299 10.1575
2 0.272461 10.6588 0.108946
2 1.89147 12.563 7.15243
2 12.5466 1.99474 -0.157083
2 10.4494 12.7155 7.00855
2 0.21564 0.0503974 1.40206
2 12.6676 0.163364 8.09802
2 1.40096 0.751858 10.4395
2 -0.239764 0.199134 5.66515
2 11.3812 2.21382 1.97409
2 10.9879 11.2179 9.37809
2 0.891582 11.0958 2.96267
2 2.00277 1.9062 8.85856
2 0.858439 2.48502 2.57931
2 1.30944 12.0219 9.57905
2 11.3342 11.0623 2.12948
2 10.4963 0.569293 9.49525
2 0.167576 10.3309 10.9059
2 2.22274 1.50491 4.92682
2 11.9239 1.22307 11.1642
2 10.8551 11.0692 4.53159
2 10.8131 9.57389 11.5169
2 10.8346 0.664656 3.90535
2 1.19698 2.80704 11.3473
2 2.05996 11.7582 4.92812
1 10.5178 7.68477 7.96302
1 5.02682 11.2873 1.80886
1 1.66473 5.25042 7.56302
1 8.18436 1.32289 0.789577
1 1.10123 7.99893 8.45569
1 8.2627 10.9009 0.780917
1 11.2284 4.66268 8.29011
1 4.9779 1.66233 1.62465
1 0.87246 4.89601 4.73608
1 7.79236 1.10879 11.4431
1 11.2621 7.33285 3.9235
1 4.80624 11.1933 12.1991
1 11.0225 4.59718 4.80964
1 4.8022 1.57172 11.84
1 1.43658 7.78954 5.46071
1 7.68899 10.8798 11.3815
1 10.3633 10.3643 3.08452
1 1.92167 10.301 10.0653
1 2.33947 2.33049 3.69013
1 10.8281 2.00486 10.2433
1 2.16575 10.2427 3.76387
1 9.98159 9.71225 9.98985
1 10.0463 2.14948 3.06225
1 2.5164 3.18162 10.0574
1 -0.0694107 1.68027 1.52981
1 11.1625 12.4691 8.6237
1 0.231518 11.5398 1.47292
1 1.28487 0.511931 8.69092
1 12.1869 10.0588 12.5427
1 1.44627 0.0872332 5.57706
1 0.326677 1.54688 12.087
1 11.3342 12.5374 5.07572
96
 Atoms. Timestep: 12000
2 -0.395389 6.76048 3.36257
2 4.76484 12.8562 12.6143
2 12.7556 4.39101 4.66037
2 7.83456 12.8864 11.9381
2 12.6369 4.64724 9.36706
2 7.82112 -0.028145 1.6141
2 0.287306 8.1256 7.13308
2 5.10725 12.8229 2.27854
2 11.2834 8.17152 5.55953
2 4.50695 10.6719 -0.19509
2 2.15803 4.81579 8.38473
2 8.71065 1.76354 13.5928
2 2.1716 7.60791 6.81256
2 8.51415 10.9063 13.624
2 11.3152 4.45012 7.15638
2 4.55209 1.3467 0.392626
2 10.9681 6.18315 4.49115
2 8.16488 9.73444 11.3227
2 1.34356 6.28771 4.52168
2 6.06915 1.64613 11.5278
2 1.20954 6.40095 9.69638
2 6.55863 1.55787 1.9099
2 11.6481 7.07759 8.09428
2 6.50258 11.0074 1.33074
2 10.4704 9.68708 7.72072
2 3.56962 9.98495 2.74574
2 1.55337 3.27572 10.6187
2 9.10896 2.68382 2.49334
2 2.28539 8.76655 8.69569
2 9.17799 11.1733 2.20522
2 10.3253 4.32978 9.43529
2 4.05207 1.52953 3.46512
2 1.7626 3.36471 4.27011
2 8.4467 2.55742 10.6873
2 12.3059 9.23639 4.05012
2 3.51563 10.807 10.996
2 10.8862 3.73788 4.34583
2 3.16427 1.58273 11.3313
2 2.45746 8.92817 4.4327
2 10.0147 10.8182 10.7725
2 0.13501 10.2591 13.2264
2 1.49003 12.9183 6.93334
2 9.78125 12.7519 11.2637
2 10.4251 0.721177 6.53949
2 0.32256 12.6762 1.13983
2 12.3195 0.556151 8.16891
2 12.4255 -0.695283 9.74229
2 -0.443977 0.456214 5.62798
2 11.5106 1.53783 2.37839
2 10.0352 12.3828 8.05217
2 1.2331 10.4698 1.73759
2 1.84045 0.225748 9.82422
2 1.14404 1.21265 3.16029
2 1.51885 11.0511 8.51523
2 11.8356 11.3989 1.60774
2 9.97884 2.0255 8.68213
2 1.39092 10.0876 11.0461
2 2.09233 1.12087 5.20946
2 10.9261 1.84888 10.7468
2 10.8191 11.8881 4.20036
2 11.9832 9.98629 10.1669
2 10.5548 1.51467 4.13063
2 -0.184954 1.1388 11.0261
2 1.62963 11.445 4.529
1 11.5845 8.46954 7.04472
1 4.66774 10.8026 1.69684
1 0.926734 4.83587 9.74998
1 8.12166 1.77869 1.28557
1 1.39035 7.65548 8.18113
1 7.91131 11.5786 1.10341
1 11.3796 5.42891 8.56201
1 4.86889 1.2107 1.94604
1 1.03148 4.71908 3.90552
1 7.60738 1.36366 12.0656
1 11.7117 7.5936 3.94496
1 4.08109 11.4405 12.297
1 11.1819 4.75209 5.42085
1 4.44886 1.10664 12.3212
1 2.31987 7.41459 5.21077
1 8.59954 11.2927 11.9844
1 10.5455 11.1743 2.70284
1 2.44765 10.2947 9.59018
1 2.62914 1.9772 3.88851
1 9.73715 2.97596 9.94897
1 1.925 10.3051 3.32568
1 10.5105 10.6922 9.03843
1 10.7503 2.89602 2.98823
1 1.53654 1.58943 10.7909
1 0.122709 0.996117 2.06601
1 10.5269 0.643793 8.34656
1 0.172941 10.9932 0.896576
1 0.796727 -0.337038 8.32842
1 -0.321463 10.268 11.5771
1 1.24981 13.0172 5.26912
1 11.6001 0.34752 11.0518
1 11.3037 0.387954 4.95577
96
 Atoms. Timestep: 14000
2 9.1025 6.9795 5.98054
2 4.78975 0.1687 11.2499
2 12.795 4.95144 5.16627
2 9.19537 0.0929961 12.7712
2 11.8102 4.26184 8.25386
2 7.37319 0.353286 1.09657
2 -0.245472 7.63082 8.72323
2 4.4968 -0.0471763 1.43127
2 11.3055 7.53926 6.58873
2 4.14985 11.522 -0.232326
2 2.45855 4.622 5.99036
2 8.22795 2.52423 0.166871
2 0.956347 7.70179 6.41918
2 8.02409 11.0598 0.0698526
2 10.5154 4.47731 6.11098
2 4.5585 1.99217 0.168704
2 10.6446 6.45382 4.11219
2 4.24323 7.6969 6.24672
2 2.00472 6.58967 4.64552
2 6.64241 1.97882 12.7024
2 2.38915 6.02994 8.28228
2 6.63221 2.08685 1.80197
2 10.2185 6.13202 8.0744
2 6.22195 11.3132 1.59267
2 10.2896 8.45004 9.37764
2 4.12885 10.9401 2.62581
2 3.19624 3.37293 8.38509
2 9.41044 1.79942 2.73011
2 1.70101 8.65753 9.09406
2 9.31151 11.387 2.40871
2 9.37016 3.27571 8.85067
2 3.8453 2.53599 2.44438
2 2.32516 3.62126 4.24334
2 9.25966 2.31187 11.4752
2 9.88892 9.27673 4.47868
2 3.6183 10.7495 10.8514
2 10.3569 3.74741 3.99168
2 3.72194 2.27875 11.2342
2 2.51618 9.14575 4.69444
2 9.14437 10.5406 11.2256
2 0.0264883 10.0274 0.065612
2 1.46892 12.8195 6.91041
2 10.4396 10.1719 12.679
2 11.6039 12.1001 6.79077
2 -0.167872 12.3982 1.5717
2 12.7236 12.7298 9.14729
2 -0.301587 1.45651 8.54924
2 12.739 -0.41189 4.55166
2 11.6795 1.98795 2.01618
2 11.1956 10.8965 9.01556
2 1.82096 10.5679 2.20598
2 1.53745 1.18407 9.56643
2 0.81268 1.98167 2.52767
2 1.31368 11.9297 9.5085
2 12.1355 10.7195 2.67311
2 10.4437 0.505124 9.60798
2 0.674572 10.4638 11.359
2 1.85437 1.18379 4.22546
2 11.518 2.42453 9.96065
2 9.94223 11.7784 5.21586
2 11.5301 10.685 11.0433
2 11.094 1.43437 4.76057
2 0.929991 2.99913 9.87452
2 1.80114 11.5858 4.27518
1 11.321 7.47129 8.452
1 4.58769 11.5187 1.40275
1 3.06618 4.80758 7.6023
1 8.27839 1.84874 1.52402
1 1.18995 7.31605 8.13125
1 7.72529 11.6984 1.45014
1 10.1302 4.55724 7.88211
1 4.93112 1.42237 1.5989
1 1.38123 4.91895 4.91946
1 8.2588 1.87992 12.4899
1 10.2305 7.70556 5.14752
1 4.62168 11.6179 12.0844
1 11.238 4.95689 4.46313
1 4.99445 1.55081 12.4152
1 3.12867 7.74996 4.98151
1 9.12058 11.4505 12.5687
1 10.3322 10.6988 3.44518
1 2.04934 10.2589 10.0434
1 2.32303 2.32608 3.20456
1 9.91532 2.05301 9.95201
1 2.60161 10.3592 3.6673
1 10.2026 9.92283 10.0343
1 10.893 2.30962 3.36695
1 2.72619 2.49443 9.70203
1 -0.122346 1.28772 1.36451
1 11.1754 12.4108 8.61725
1 0.323422 10.7617 1.59063
1 0.977626 0.052547 8.542
1 12.4131 10.2501 12.3507
1 1.35572 12.913 5.27978
1 12.5772 3.01664 9.07584
1 11.2536 12.7422 5.24626
96
 Atoms. Timestep: 16000
2 8.63023 6.86051 4.60338
2 4.44292 -0.109845 11.6642
2 12.5936 4.48568 5.4822
2 8.11904 -0.350745 12.1074
2 12.0883 3.66324 9.55308
2 8.32683 -0.134189 1.62952
2 -0.416113 7.48486 8.55828
2 4.85872 0.221993 1.83509
2 11.0045 8.15638 6.77546
2 4.91347 11.0727 0.0258619
2 2.63214 4.41595 6.17809
2 8.66299 2.14669 13.4061
2 1.00646 8.66401 6.60279
2 8.73433 11.0679 -0.014368
2 10.7948 3.80323 7.0742
2 4.9668 1.4926 13.4385
2 10.462 5.69832 4.87073
2 12.5346 9.1514 4.09477
2 0.42819 6.47695 4.8602
2 6.23042 2.16666 11.5463
2 1.64852 6.15866 8.30486
2 6.64172 1.87205 1.26872
2 10.8136 6.23236 8.81027
2 7.05004 11.1411 2.08879
2 10.9549 9.32804 8.65262
2 3.71999 11.0797 2.47082
2 2.73696 4.44232 8.91311
2 9.35904 2.90121 2.35483
2 0.989033 9.0376 9.32164
2 9.41277 10.4575 2.86709
2 9.7999 3.50817 8.9845
2 4.24366 2.57097 2.71929
2 1.71933 3.39852 4.20957
2 8.43902 1.10224 10.5698
2 10.6539 8.80454 4.92285
2 2.96609 10.4257 11.5002
2 10.6025 3.34057 4.42817
2 3.77449 3.17144 11.0798
2 2.39945 8.93359 4.59217
2 10.0938 11.1141 10.6804
2 -0.00128512 10.3659 13.412
2 1.60118 13.1371 7.29279
2 10.893 10.8205 12.7664
2 10.8124 -0.0704954 6.21297
2 0.832535 12.1684 1.63958
2 11.6411 0.878612 8.25992
2 0.882875 1.22605 9.37128
2 0.481874 12.5907 5.04736
2 12.5712 1.90575 2.34489
2 9.63428 11.8271 8.30097
2 1.13344 10.3687 2.63397
2 3.73519 12.9421 9.6552
2 1.90056 1.83453 2.44769
2 1.90793 11.8032 9.13877
2 11.71 10.323 2.17287
2 9.24011 0.848062 8.12456
2 0.138921 10.1784 10.9358
2 2.94327 1.29779 4.80046
2 10.8662 1.88873 9.91088
2 11.4588 11.6004 4.79388
2 12.1226 8.30323 11.2368
2 11.0788 0.75919 4.13344
2 0.725818 2.95029 10.7397
2 2.37147 11.575 5.0014
1 11.18 7.66591 8.23473
1 5.17076 11.7476 1.54376
1 2.85466 5.01885 7.48512
1 8.46859 1.57476 1.27218
1 0.990977 7.95702 8.24646
1 8.88054 11.4079 1.64695
1 11.0378 4.7102 8.62502
1 4.91337 1.81844 1.28396
1 1.07914 4.7295 5.07691
1 7.73263 1.48774 11.961
1 10.0237 7.21504 5.1137
1 3.9294 11.3893 12.4524
1 11.0516 4.2803 5.62568
1 4.60498 1.63186 11.8013
1 0.740504 8.20694 5.12141
1 9.46295 11.5763 12.2519
1 11.1244 10.392 3.68325
1 1.67042 10.6437 10.3238
1 2.86821 2.52182 3.59447
1 9.1907 1.92624 9.04005
1 2.5635 10.5686 3.57205
1 9.79224 10.3345 9.26921
1 11.0435 2.36722 3.2581
1 2.33948 3.64897 10.5715
1 0.874432 0.866546 1.94145
1 10.4133 -0.178523 7.70217
1 -0.0122357 10.8912 1.28143
1 2.4608 0.414033 8.78492
1 12.2544 9.99729 12.325
1 1.97524 12.8708 5.69209
1 12.286 2.06671 9.6201
1 12.0072 -0.0343707 5.10475
96
 Atoms. Timestep: 18000
2 10.9184 5.70478 1.39602
2 4.74315 0.252692 11.4964
2 12.624 5.10062 4.7786
2 9.13207 12.6071 12.4407
2 12.7331 2.81413 9.61129
2 7.07022 0.256595 3.30974
2 12.4618 7.19327 8.26603
2 4.24796 0.17361 2.22198
2 10.5625 5.79495 6.73624
2 4.9566 11.4483 13.3142
2 1.6999 5.76336 6.72561
2 7.66467 1.82476 0.843594
2 1.89204 8.63843 6.34436
2 8.88728 11.1518 1.65018
2 11.7891 4.10972 6.88045
2 4.81598 1.8169 0.264899
2 10.9171 5.73867 3.97668
2 12.2668 9.32475 4.63551
2 1.33908 7.39853 4.68437
2 6.40603 1.53159 11.9307
2 2.56296 6.55624 8.43146
2 5.48009 2.69174 2.38653
2 11.3437 5.47161 8.92499
2 6.36304 11.1878 2.16814
2 9.77316 7.55359 8.86454
2 3.55064 10.6345 1.53854
2 2.42452 3.8004 9.24792
2 8.51688 2.47132 3.1884
2 2.65422 9.20878 8.56605
2 9.03407 10.0565 3.60682
2 10.4799 3.29914 9.6413
2 2.7352 2.56369 2.72587
2 1.86376 4.28575 4.54208
2 9.0119 2.02451 11.4265
2 10.4361 8.25671 3.04881
2 3.78786 10.2925 10.8091
2 10.0961 3.89281 4.65783
2 4.40043 2.50829 10.5235
2 1.36046 9.60642 3.03584
2 10.3408 10.0934 10.86
2 0.679095 12.616 0.345349
2 2.59412 -0.0283197 6.80572
2 9.97888 11.265 0.381261
2 10.4483 11.8062 6.86114
2 11.5989 4.5182 1.33882
2 12.2125 12.4892 8.89727
2 1.61765 12.5633 8.96199
2 12.5253 12.4674 5.68753
2 11.0805 2.41188 3.14154
2 9.39973 10.9796 9.33042
2 0.743546 10.436 1.25129
2 3.61908 1.538 8.19773
2 0.556143 1.97475 2.71623
2 4.08927 11.0167 8.47654
2 11.644 10.8448 2.40712
2 9.53949 0.61389 8.92354
2 2.26836 11.4485 12.3087
2 2.21593 1.09716 5.03121
2 11.3631 1.25504 10.4139
2 10.3827 11.8469 4.05116
2 0.369355 0.0750429 11.1195
2 10.1811 1.31251 5.19535
2 1.68223 1.63766 9.92611
2 1.89402 10.8839 5.4411
1 10.9164 6.9291 7.85302
1 4.78762 11.3816 1.56758
1 2.32123 4.89599 7.88504
1 7.02937 1.9152 2.38111
1 1.37503 8.12425 7.88612
1 7.97778 11.357 2.83072
1 11.6674 3.83393 8.71396
1 4.10661 1.94391 2.12466
1 1.28361 5.77119 4.91065
1 8.04875 1.26702 12.4496
1 10.7057 6.63255 2.81515
1 4.01651 11.5014 11.818
1 11.0863 4.78038 5.55574
1 4.72928 1.75943 11.8458
1 1.3829 9.23827 4.89399
1 9.54486 10.9289 11.8858
1 10.8455 9.86895 3.64295
1 4.04068 9.64787 9.31025
1 1.82819 2.50239 4.09579
1 9.93215 1.8647 9.86653
1 2.40181 9.31421 1.3778
1 9.57431 9.20541 9.60703
1 9.72918 2.45186 4.10257
1 3.10452 2.29611 9.52079
1 12.1401 2.68703 1.92069
1 10.4394 12.0919 8.45254
1 11.8502 11.5314 0.694028
1 3.39217 12.5419 8.08477
1 1.48082 0.022257 12.3618
1 1.36232 -0.0314585 5.67482
1 0.163058 1.05609 9.66576
1 10.9917 12.5155 5.47564
96
 Atoms. Timestep: 20000
2 12.8065 6.2748 2.68713
2 3.84515 0.681014 12.3943
2 12.698 4.5741 5.44065
2 9.2592 0.108673 11.4675
2 -0.212978 2.79248 9.26289
2 7.09855 12.5729 2.71652
2 -0.0423613 7.6438 8.25894
2 4.79491 0.384052 1.88871
2 11.3848 6.42824 6.95778
2 4.16591 11.8797 13.3815
2 2.13998 4.33657 6.1596
2 8.30736 1.03512 1.12933
2 2.13725 7.85957 6.34385
2 5.63982 10.6552 4.25099
2 11.7275 4.09083 7.50317
2 4.71843 2.59171 -0.0876475
2 10.6391 5.8212 4.58513
2 12.7544 7.63684 4.70227
2 1.88643 6.08324 4.76997
2 6.52776 1.17654 12.7334
2 2.48906 6.34495 8.35714
2 6.12405 1.91058 2.25542
2 11.9756 5.81824 9.70103
2 5.8115 11.203 1.7648
2 10.4083 8.43928 8.82194
2 3.51412 10.3973 1.49279
2 3.51161 3.88914 8.15481
2 8.90185 1.98517 2.93694
2 2.1114 9.10742 8.25321
2 8.33112 9.6757 2.94751
2 10.5992 3.45511 10.3867
2 3.57571 2.45686 2.5691
2 1.62948 3.54033 4.1429
2 9.21202 1.95765 12.2441
2 10.516 8.01289 3.228
2 3.10828 11.4056 10.5094
2 9.73927 3.80512 5.53045
2 5.15205 1.71296 10.36
2 2.12767 8.9179 3.25814
2 10.0175 10.3432 10.6892
2 12.0555 12.3072 -0.0628994
2 1.88507 12.9267 6.19696
2 11.1852 12.2044 11.3537
2 10.5182 12.1626 6.61207
2 0.0666355 4.85205 2.32321
2 11.6752 12.9813 9.16537
2 1.19358 0.769598 7.98783
2 12.7033 12.5508 4.61942
2 11.3641 2.78086 3.44102
2 9.10651 11.2696 8.53639
2 0.299725 10.4133 1.4253
2 3.30242 1.20245 8.48563
2 0.627096 2.30661 2.45604
2 3.16978 11.514 8.11446
2 10.3996 10.9273 2.14316
2 9.91903 0.866722 9.25598
2 1.62957 12.0034 12.5014
2 2.29668 0.771521 3.87809
2 12.004 1.42191 10.6809
2 11.1079 10.6963 4.08279
2 0.483488 0.133718 10.5291
2 10.5925 0.995366 5.05091
2 3.29251 2.98921 10.5822
2 1.98689 11.2578 3.87869
1 11.54 7.10083 8.80533
1 4.2976 11.9731 1.39709
1 2.31256 4.74984 7.60421
1 7.49185 1.25203 2.57918
1 1.52363 7.47459 8.30114
1 6.77645 10.6691 3.04294
1 11.6478 4.1274 9.19505
1 4.74825 2.0809 1.54613
1 1.19856 4.71904 4.97468
1 8.21975 1.4789 13.3069
1 11.7469 7.04831 3.68087
1 3.14809 12.1084 12.0541
1 11.1327 4.8922 6.11344
1 5.09682 1.87951 12.1958
1 1.92276 7.77231 4.60001
1 9.59742 11.6618 11.9926
1 9.8988 9.69371 3.18869
1 2.71401 10.4028 9.05212
1 2.11573 2.18175 3.23149
1 10.2953 1.82297 10.8716
1 1.9078 10.1736 2.24693
1 9.37677 9.8902 9.38947
1 9.87557 2.46189 4.46111
1 3.82027 2.35148 9.17769
1 12.6114 3.27282 2.10538
1 10.4257 12.4489 8.2654
1 11.8926 11.0833 1.2262
1 2.77973 0.0932893 7.37632
1 12.893 12.4338 12.0998
1 1.50242 12.6089 4.64498
1 -0.079666 1.04394 9.09082
1 11.0869 12.3788 4.90468
96
 Atoms. Timestep: 22000
2 11.2911 6.57859 1.68825
2 3.0249 0.374364 11.8435
2 -0.248566 4.85497 5.58205
2 12.2658 11.9656 8.82537
2 12.8078 3.12865 9.18116
2 7.64591 -0.330671 1.57678
2 0.176423 7.36911 8.6822
2 4.16225 12.5613 1.63987
2 11.2027 6.13601 6.73412
2 3.67326 11.6447 -0.241273
2 2.97234 5.42406 6.3263
2 7.24626 2.1624 0.187515
2 0.845385 8.36528 6.77298
2 7.08182 11.1013 3.95759
2 11.4535 3.88112 6.61831
2 4.2627 1.07012 -0.380716
2 10.6637 6.38274 4.25767
2 12.4689 8.16541 4.13201
2 0.952821 6.25193 4.59337
2 5.85499 1.71941 12.2146
2 2.3469 6.21614 8.26284
2 5.75679 1.29225 2.03767
2 11.5209 5.11831 8.94377
2 6.30273 10.8931 1.03193
2 11.0982 7.94164 9.26056
2 3.46067 10.1832 2.24318
2 3.42066 3.63195 8.21864
2 8.64311 1.88017 2.69259
2 2.38794 8.92599 9.58617
2 9.05024 10.9526 2.56579
2 10.6149 3.03217 9.25517
2 3.22091 1.89106 2.18313
2 1.99677 3.12539 4.92298
2 8.78739 2.01027 11.764
2 10.2216 9.14415 3.44392
2 2.49523 11.3245 11.5373
2 10.6162 3.78493 4.43478
2 3.42397 2.5058 10.8646
2 1.8263 8.83435 4.14572
2 12.2662 10.2249 10.5486
2 -0.244721 12.4614 0.74651
2 1.63148 12.798 6.72268
2 -0.471196 12.0439 11.922
2 10.2631 12.7334 6.67433
2 12.5679 1.04501 0.168979
2 11.4165 0.424415 9.12253
2 0.27969 0.604424 8.85075
2 12.8921 12.6903 5.02897
2 10.9878 1.76492 2.30058
2 10.3392 10.9298 8.91875
2 1.24018 10.6242 2.13249
2 2.39554 1.10548 9.09457
2 0.602898 2.21423 2.757
2 2.56934 12.0328 9.3659
2 11.7347 10.6281 2.12252
2 9.4414 0.284281 9.64315
2 1.40315 -0.0898769 13.1243
2 1.93247 0.51792 4.27502
2 11.4992 1.93883 10.9735
2 10.642 11.7963 4.57736
2 0.140988 0.570799 11.2633
2 10.8256 1.09211 4.78729
2 1.58145 3.77066 9.87449
2 2.05178 11.3133 4.60586
1 11.946 6.68134 8.49848
1 4.3657 11.1166 1.08517
1 3.57281 5.35625 7.88605
1 7.37373 1.39044 1.62452
1 1.53194 7.69665 8.32209
1 7.51885 11.4829 2.26005
1 11.6313 3.71682 8.23488
1 4.50952 0.911331 1.27506
1 1.53053 4.69274 5.53115
1 7.51574 1.64412 12.6298
1 11.1526 7.51794 3.35505
1 2.72076 12.4936 12.8451
1 11.3865 5.27824 5.33636
1 4.09625 1.68042 12.1081
1 0.45623 8.00706 5.08147
1 -0.153318 11.4722 10.2549
1 10.5535 10.5667 3.38256
1 2.05713 10.5797 10.1468
1 2.0571 2.09872 3.62914
1 9.8993 1.67059 10.5232
1 2.31739 10.2881 3.38158
1 11.0796 9.57417 9.65661
1 10.1601 2.14681 3.59563
1 2.76249 2.64885 9.43846
1 12.4838 1.30336 1.84282
1 10.4172 12.6643 8.36374
1 -0.257223 11.0137 1.6514