96
 Atoms. Timestep: 0
2 0 7.95642 4.74695
2 4.63304 0 11.358
2 0 4.63304 4.74695
2 7.95642 0 11.358
2 0 4.63304 8.47514
2 7.95642 0 1.8641
2 0 7.95642 8.47514
2 4.63304 0 1.8641
2 10.7421 8.43088 6.61105
2 4.15858 10.7421 0
2 1.84736 4.15858 6.61105
2 8.43088 1.84736 0
2 1.84736 8.43088 6.61105
2 8.43088 10.7421 0
2 10.7421 4.15858 6.61105
2 4.15858 1.84736 0
2 10.5201 6.29473 5.04003
2 6.29473 10.5201 11.6511
2 2.06934 6.29473 5.04003
2 6.29473 2.06934 11.6511
2 2.06934 6.29473 8.18207
2 6.29473 2.06934 1.57102
2 10.5201 6.29473 8.18207
2 6.29473 10.5201 1.57102
2 10.1594 8.65935 9.20274
2 3.93011 10.1594 2.59169
2 2.43004 3.93011 9.20274
2 8.65935 2.43004 2.59169
2 2.43004 8.65935 9.20274
2 8.65935 10.1594 2.59169
2 10.1594 3.93011 9.20274
2 3.93011 2.43004 2.59169
2 2.43004 3.93011 4.01936
2 8.65935 2.43004 10.6304
2 10.1594 8.65935 4.01936
2 3.93011 10.1594 10.6304
2 10.1594 3.93011 4.01936
2 3.93011 2.43004 10.6304
2 2.43004 8.65935 4.01936
2 8.65935 10.1594 10.6304
2 0 10.703 0
2 1.88643 0 6.61105
2 0 1.88643 0
2 10.703 0 6.61105
2 0 0 1.872
2 0 0 8.48305
2 0 0 11.3501
2 0 0 4.73905
2 11.2706 2.31295 2.18973
2 10.2765 11.2706 8.80078
2 1.31887 10.2765 2.18973
2 2.31295 1.31887 8.80078
2 1.31887 2.31295 2.18973
2 2.31295 11.2706 8.80078
2 11.2706 10.2765 2.18973
2 10.2765 1.31887 8.80078
2 1.31887 10.2765 11.0324
2 2.31295 1.31887 4.42131
2 11.2706 2.31295 11.0324
2 10.2765 11.2706 4.42131
2 11.2706 10.2765 11.0324
2 10.2765 1.31887 4.42131
2 1.31887 2.31295 11.0324
2 2.31295 11.2706 4.42131
1 11.0086 7.83654 8.10972
1 4.75292 11.0086 1.49867
1 1.5809 4.75292 8.10972
1 7.83654 1.5809 1.49867
1 1.5809 7.83654 8.10972
1 7.83654 11.0086 1.49867
1 11.0086 4.75292 8.10972
1 4.75292 1.5809 1.49867
1 1.5809 4.75292 5.11238
1 7.83654 1.5809 11.7234
1 11.0086 7.83654 5.11238
1 4.75292 11.0086 11.7234
1 11.0086 4.75292 5.11238
1 4.75292 1.5809 11.7234
1 1.5809 7.83654 5.11238
1 7.83654 11.0086 11.7234
1 10.1088 10.1088 3.30552
1 2.48067 10.1088 9.91657
1 2.48067 2.48067 3.30552
1 10.1088 2.48067 9.91657
1 2.48067 10.1088 3.30552
1 10.1088 10.1088 9.91657
1 10.1088 2.48067 3.30552
1 2.48067 2.48067 9.91657
1 0 1.60471 1.57853
1 10.9848 0 8.18958
1 0 10.9848 1.57853
1 1.60471 0 8.18958
1 0 10.9848 11.6436
1 1.60471 0 5.03252
1 0 1.60471 11.6436
1 10.9848 0 5.03252
96
 Atoms. Timestep: 2000
2 -0.136283 7.71348 5.67645
2 5.67901 12.7945 11.4482
2 12.8509 4.13619 4.88556
2 7.99712 0.0602113 11.4934
2 0.885476 4.97648 8.82193
2 7.69672 12.2214 1.62826
2 0.00133978 7.81328 8.76153
2 2.9908 0.549126 0.225114
2 10.6744 7.98107 6.95067
2 4.76823 12.1603 0.0439669
2 2.56273 4.85122 6.02302
2 8.51742 1.14764 -0.237664
2 1.64698 9.11245 6.68357
2 8.5106 11.5292 -0.186738
2 12.3371 3.62115 7.06471
2 4.10888 1.53724 12.5587
2 11.4206 5.8797 4.93297
2 6.83511 10.9103 12.059
2 1.2505 5.37753 3.43645
2 6.37204 1.81909 11.1288
2 2.07535 6.8406 8.18993
2 5.73867 0.868782 1.54223
2 11.4725 6.08492 8.32011
2 6.89701 10.2923 1.42663
2 10.9741 8.56204 10.0613
2 3.41147 12.1374 2.81029
2 3.10467 3.92423 8.58638
2 8.11994 1.51306 3.15075
2 1.95333 9.24242 9.88876
2 9.51688 9.56131 2.11404
2 10.9889 3.84922 9.46717
2 1.8382 2.12136 0.94135
2 1.56376 3.03255 4.04836
2 8.36047 2.15241 10.4113
2 10.9302 8.85232 4.71682
2 3.74602 11.0573 11.1983
2 11.0335 2.57088 5.37328
2 4.37347 2.30661 10.1122
2 1.76196 9.42125 4.05863
2 9.70711 11.3022 10.9619
2 0.0028557 11.3608 13.4648
2 1.21088 0.182315 6.75042
2 12.2333 1.63775 0.552155
2 10.4163 12.2492 6.27222
2 11.7572 12.5631 1.58611
2 12.8429 12.4834 8.28553
2 12.8057 0.106872 11.3308
2 12.4688 12.6886 4.78815
2 10.2989 2.06087 2.98652
2 10.8418 12.0471 9.30612
2 0.989777 10.5587 1.65273
2 1.95505 1.57792 8.50521
2 0.115068 1.46542 2.96387
2 2.33261 11.8146 8.68018
2 12.0743 9.74457 1.92149
2 10.5846 1.09433 8.50899
2 1.49272 11.1028 11.2605
2 1.82321 0.774545 3.99528
2 11.4762 1.79126 10.802
2 10.3118 10.9026 3.89429
2 12.1778 10.338 11.3049
2 9.6565 0.208486 4.46525
2 1.19916 1.89711 12.291
2 1.62439 11.4427 4.60771
1 11.4614 7.72299 8.48602
1 3.93298 -0.183613 1.46386
1 2.18595 5.30659 7.90104
1 7.74039 0.865487 1.55883
1 1.49514 8.42734 8.35987
1 8.34866 10.8087 1.22692
1 12.4413 4.35822 8.70249
1 2.66703 2.08712 13.3777
1 1.24266 4.54966 4.69071
1 7.89816 1.60463 11.9013
1 11.5656 7.50554 5.31307
1 5.37171 11.2772 12.1892
1 11.5274 4.18103 5.66491
1 5.05303 1.27939 11.2593
1 1.2671 8.34397 4.89952
1 8.26201 11.5663 11.7986
1 10.7485 9.4591 3.00608
1 2.56698 10.8286 10.1664
1 1.62846 1.98509 2.55102
1 10.0465 2.14221 9.75664
1 2.2525 10.6233 3.30999
1 10.6978 10.3726 10.1271
1 9.27063 1.92771 4.47182
1 3.40121 2.29381 8.95898
1 11.8573 1.21777 1.91315
1 10.9154 12.778 7.84447
1 12.5107 11.163 1.2052
1 1.22391 -0.02197 8.41115
1 -0.0825901 11.4657 11.7316
1 0.834465 -0.0159189 4.98641
1 12.5182 1.38255 12.4113
1 10.9432 12.1644 4.74814
96
 Atoms. Timestep: 4000
2 12.4439 7.68965 5.05985
2 5.09409 12.0937 12.3745
2 -0.005241 4.88226 5.15075
2 7.73303 12.5928 11.912
2 0.55449 4.31457 8.89136
2 8.43929 0.316163 1.78479
2 0.222486 8.41781 8.35926
2 4.60004 0.742013 1.77432
2 11.033 8.10824 7.14679
2 4.82804 10.6424 0.679998
2 2.1874 4.58498 6.42437
2 8.07347 1.9145 -0.316452
2 1.6126 7.77304 6.58214
2 8.23942 10.8158 0.484975
2 11.1051 3.8063 6.89559
2 4.32495 1.55782 12.6554
2 10.7176 6.05626 5.48719
2 6.41711 9.9411 12.4585
2 1.78796 6.49839 4.34637
2 2.57211 3.50145 12.1452
2 1.80305 6.25561 8.79491
2 5.87089 1.79487 1.43211
2 11.1181 6.18405 8.46033
2 6.45493 11.4929 1.87561
2 10.5532 9.06713 9.02347
2 3.54035 10.962 2.52832
2 2.57355 3.10465 8.55249
2 8.50809 2.22015 2.99642
2 2.65061 9.03054 8.98505
2 8.80884 10.7003 3.41979
2 10.2423 3.39372 9.50578
2 2.56364 2.69955 1.47505
2 2.44022 4.13246 3.83799
2 8.4342 2.01122 10.5213
2 9.82398 8.75811 5.12986
2 3.52934 10.1012 11.3459
2 10.3496 4.17791 4.39695
2 4.42714 0.939752 9.98997
2 1.672 9.172 4.01693
2 9.15459 10.6183 11.082
2 12.4491 10.5849 -0.115209
2 2.22552 -0.430156 6.21057
2 12.0531 1.67852 -0.169348
2 11.2622 12.4529 6.16641
2 11.6718 0.362279 2.58682
2 0.20492 -0.0353457 7.01389
2 0.085181 12.6738 11.8843
2 12.4966 12.4363 4.45974
2 11.1135 2.47926 2.02908
2 10.6032 11.9045 8.71574
2 0.938011 10.3833 1.53676
2 3.17583 1.05421 7.72566
2 0.700481 2.64397 2.34207
2 2.76711 11.8107 8.87158
2 11.3932 9.36478 2.72149
2 10.9956 0.882968 8.82599
2 1.13707 11.2759 10.62
2 1.96383 1.26912 3.71854
2 11.8396 2.01543 10.8934
2 10.7415 11.4267 4.3106
2 11.3889 10.6657 10.8051
2 10.2585 1.64924 4.55508
2 1.38201 1.9382 12.5733
2 1.31173 11.5845 3.39551
1 11.8177 7.87915 8.59802
1 4.81938 11.9108 1.98021
1 2.19135 4.71006 8.13979
1 7.59368 1.56634 1.50316
1 1.69146 7.84213 8.23099
1 8.10213 11.5426 2.09501
1 11.1823 4.57419 8.39398
1 2.84161 2.18255 13.1607
1 1.62105 4.97102 4.90626
1 8.27471 1.07387 11.9047
1 11.0017 7.69895 5.44144
1 4.89599 10.3476 12.3058
1 11.3462 4.5303 5.40398
1 5.09769 0.687833 11.4345
1 1.32411 7.85655 4.83718
1 8.07268 10.4385 12.1174
1 10.1376 9.86283 3.91989
1 2.4318 10.3662 10.0394
1 2.15979 2.55257 2.94561
1 10.1583 2.02499 9.76931
1 1.95015 10.0353 2.77585
1 10.253 10.6633 9.47304
1 10.1265 2.67578 3.43179
1 3.64451 2.04758 8.95387
1 12.49 1.91913 1.604
1 11.2566 0.120923 7.55183
1 12.158 10.0508 1.54194
1 1.97152 -0.087117 7.72883
1 12.79 11.1896 11.8642
1 1.25898 -0.125485 4.63495
1 0.060841 1.21066 12.0536
1 10.9394 -0.13073 4.45077
96
 Atoms. Timestep: 6000
2 12.4684 8.42265 4.28733
2 5.23257 12.2346 9.82365
2 12.5711 4.58279 4.39213
2 8.19304 4.06701 1.2287
2 0.748518 3.78345 8.63031
2 7.24596 11.8616 1.08277
2 0.996581 8.50844 8.57226
2 3.81978 12.416 0.651138
2 11.5231 7.90899 7.08685
2 4.4386 10.3799 12.4092
2 2.12491 5.14861 6.19726
2 8.61237 1.60511 1.15354
2 1.14186 8.78136 5.80575
2 7.48205 9.33682 12.7378
2 11.71 4.35685 6.90824
2 3.44327 1.6463 13.2422
2 10.9004 6.35726 4.85157
2 6.5323 9.77147 10.5995
2 1.93294 6.39937 4.27175
2 1.96272 12.0262 1.3952
2 2.91522 7.70134 7.60572
2 9.14522 12.0249 2.61057
2 11.7688 6.36989 9.06662
2 5.92654 10.0805 0.988834
2 11.4094 8.67817 9.40549
2 3.4053 9.99639 1.73231
2 3.41393 4.6205 7.89622
2 7.9447 1.51566 3.32307
2 2.10485 10.4437 8.1281
2 7.99144 10.0706 2.16049
2 10.9955 3.63734 9.48759
2 2.63506 1.38767 1.88765
2 2.13526 3.727 3.90613
2 10.2592 3.10097 12.4888
2 9.8957 9.10651 4.49544
2 4.02662 10.5239 10.0152
2 9.55519 3.90172 4.74511
2 3.04714 2.81485 10.3557
2 2.14106 9.26839 3.34343
2 9.43559 9.15711 10.4835
2 12.0349 10.2018 13.4117
2 2.05371 0.214589 6.14958
2 11.9038 0.907471 0.619413
2 11.3281 0.0284317 6.56274
2 11.6958 0.70827 3.26995
2 0.475875 0.126848 8.38007
2 -0.289355 11.9641 12.928
2 -0.314508 12.0747 4.68077
2 10.6434 2.93158 1.44698
2 10.5193 11.7948 9.0917
2 0.850021 9.9412 1.43632
2 2.76808 2.03728 8.24659
2 0.483304 2.33133 2.44462
2 2.97089 12.8704 8.92679
2 10.5168 9.94297 2.16644
2 11.0914 1.16949 9.70907
2 1.41504 11.1831 11.0056
2 1.68549 1.32339 4.39136
2 11.8067 1.9049 11.8315
2 9.96327 11.5112 4.57614
2 11.6136 10.094 10.9342
2 10.3299 1.20859 4.98407
2 1.30579 0.805812 13.167
2 2.17145 11.3257 3.63595
1 12.3818 7.79238 8.56449
1 4.7024 10.8021 0.590698
1 2.98297 5.99605 7.46278
1 7.8484 0.394114 2.16733
1 1.96314 9.00992 7.29306
1 7.53984 10.3183 0.536606
1 12.0728 4.57214 8.67204
1 2.49683 0.589945 0.581928
1 1.35537 4.74331 4.84134
1 9.59156 2.79133 0.481448
1 11.1311 7.91848 5.3897
1 5.55322 10.9401 10.8794
1 10.8828 4.7618 5.27948
1 3.11157 2.78577 12.073
1 1.34788 8.22315 4.31918
1 7.85543 8.94457 11.2447
1 9.26383 10.5129 3.11041
1 2.63291 11.3432 9.64264
1 1.99258 2.33374 2.98754
1 10.665 2.32789 10.8817
1 2.0027 10.54 2.2546
1 10.559 10.1342 9.63849
1 9.19891 2.19423 4.5276
1 2.74473 3.62456 9.0059
1 11.9112 1.87231 1.94197
1 11.2391 0.283763 8.26433
1 12.1559 9.53404 1.67652
1 2.06682 0.741993 7.70783
1 -0.0102711 10.6393 11.7322
1 1.30015 12.4179 4.59889
1 12.7814 0.741156 12.8258
1 11.2976 12.872 4.71216
96
 Atoms. Timestep: 8000
2 12.5369 8.61853 5.3007
2 5.39893 8.82085 12.4407
2 12.4001 5.03739 4.97648
2 9.72429 2.91223 13.1462
2 0.370057 3.27259 8.43695
2 8.21923 11.625 0.320793
2 -0.0590943 7.8022 7.53388
2 4.09587 12.6725 0.699531
2 10.5953 8.41655 6.72184
2 4.27178 10.8369 12.8543
2 1.52093 5.7158 5.76974
2 8.25649 0.998848 -0.0175016
2 2.06445 8.55549 6.31208
2 7.34377 9.7082 12.7873
2 0.588802 5.79259 10.4612
2 5.26814 3.06499 12.5476
2 10.4215 6.6722 5.60772
2 6.57619 10.9335 10.9985
2 1.0204 7.40899 4.08945
2 1.72615 12.276 1.70851
2 2.48617 6.41121 7.75193
2 8.38118 12.0842 2.3428
2 11.6309 6.08782 7.16682
2 5.6788 9.7976 0.785723
2 10.6998 8.66311 9.22381
2 2.74671 10.2814 1.51623
2 2.80611 4.22048 7.58408
2 8.8408 1.40129 6.59798
2 1.46877 9.10105 8.95093
2 8.35326 10.0318 2.38324
2 11.2449 3.53361 10.1957
2 2.37774 2.01726 1.27413
2 1.25959 4.42009 2.74441
2 10.3253 1.2756 11.3082
2 10.1151 9.68996 4.55648
2 4.21588 10.3133 10.1015
2 9.57457 4.17387 5.56267
2 2.61259 2.00367 11.5474
2 1.54053 9.46569 3.55698
2 8.93884 10.1134 10.5755
2 12.1662 11.0892 13.3899
2 1.7418 12.375 6.35688
2 0.109597 0.558725 0.913237
2 11.2438 -0.0376714 6.26526
2 12.2314 0.771558 3.23507
2 0.260506 12.315 8.2538
2 0.323707 12.6535 11.581
2 12.9066 12.5834 4.94779
2 10.9493 0.91914 0.651993
2 10.6086 11.28 8.65953
2 0.543136 10.845 2.39559
2 2.49082 1.52652 8.04159
2 12.7412 2.7263 2.45475
2 2.7154 11.7577 8.73659
2 11.037 10.955 2.08414
2 11.7658 0.700583 9.49703
2 1.31027 10.9483 11.0925
2 2.19884 1.4907 3.8715
2 0.13501 2.19436 10.9237
2 9.86348 12.7325 4.06335
2 11.3659 10.1158 11.5278
2 10.3533 1.7948 4.8276
2 0.687116 1.36568 13.3046
2 2.32734 11.8158 3.80741
1 11.4586 7.50707 8.03549
1 4.36963 10.7677 0.77396
1 2.96206 5.69382 6.62158
1 7.5257 13.048 1.25836
1 1.439 7.7341 7.77821
1 7.63325 10.0388 0.94383
1 12.7352 4.55818 9.5171
1 2.77012 0.468055 1.13083
1 0.686844 5.89286 4.28556
1 9.62001 1.40702 13.0916
1 10.9603 8.46098 5.19372
1 4.82877 10.389 11.5846
1 10.8705 5.06794 5.61168
1 4.17134 2.00573 11.6461
1 1.44786 8.64402 4.87554
1 7.91698 10.5254 11.4262
1 9.61154 11.0099 3.21026
1 2.5079 10.3742 9.81202
1 1.55617 2.86 2.6582
1 11.4888 1.89971 10.5906
1 1.9858 10.7837 2.85455
1 10.4194 10.3216 9.86644
1 9.10806 2.66201 5.32467
1 1.97297 2.82038 7.72344
1 11.762 1.26299 1.91954
1 11.5805 12.4904 8.07225
1 12.457 11.5389 1.31499
1 2.02348 12.8674 7.83351
1 12.7055 11.0762 11.78
1 1.4123 0.202859 4.75214
1 1.07139 1.19883 11.8147
1 11.433 0.467762 4.72098
96
 Atoms. Timestep: 10000
2 12.2293 7.46878 5.26836
2 3.63269 8.48796 8.66625
2 1.54824 4.20892 5.07311
2 8.82446 3.29748 11.6406
2 1.5016 3.99953 8.95947
2 7.35199 11.1228 0.95007
2 0.760443 7.52265 8.25562
2 3.1255 10.8083 0.351915
2 10.9318 7.93676 7.12171
2 4.00001 8.85047 11.8682
2 3.45793 5.99696 5.30995
2 8.61499 0.732543 0.34879
2 1.67372 8.45938 6.03118
2 6.90233 9.13219 12.5222
2 11.665 5.89431 9.02317
2 4.63835 3.77981 13.0904
2 9.49732 7.12942 4.38685
2 5.87349 9.69366 9.99046
2 1.28181 6.38072 3.90263
2 2.12565 11.6091 1.98029
2 2.74052 6.92432 7.75544
2 9.18759 11.7769 3.071
2 0.419668 4.24292 7.29946
2 1.35719 9.82442 12.4785
2 10.9005 8.98813 9.34163
2 3.34146 8.06428 0.72833
2 3.41622 4.4563 7.63744
2 8.91936 5.23467 4.28616
2 2.32753 9.93156 8.17874
2 4.98134 10.8555 1.55634
2 11.8839 3.51853 10.0496
2 3.80004 0.772432 1.60439
2 3.61906 3.78012 3.41502
2 10.1332 1.46392 11.6717
2 10.0632 9.58185 4.41913
2 3.42257 10.1257 10.1904
2 11.5806 4.23286 5.3744
2 2.76165 1.56723 12.8644
2 1.5179 9.46045 3.93859
2 8.59221 10.4109 11.0081
2 12.1362 10.7435 13.3899
2 1.61821 0.387042 5.8049
2 11.2393 0.530693 2.02144
2 11.1575 1.02632 7.33997
2 10.9118 3.63909 2.84469
2 0.175508 0.339571 7.48979
2 1.1113 12.702 11.9501
2 12.4891 2.24383 5.7318
2 10.3115 2.72667 0.477523
2 10.7996 11.4136 9.25215
2 0.23242 10.8272 1.81283
2 2.31079 2.00908 7.64183
2 0.448945 2.07001 2.78231
2 1.93078 12.5101 8.91093
2 11.2136 11.3118 2.77542
2 11.9237 1.21651 9.86363
2 1.01571 10.5267 10.4191
2 2.59041 1.04745 3.62667
2 0.123747 2.19929 12.3299
2 10.3156 12.4321 5.25555
2 11.2976 10.9374 11.4712
2 10.267 2.42496 5.1704
2 12.704 0.650473 0.593353
2 0.519514 12.0497 3.62368
1 11.7709 7.43031 8.62307
1 2.97906 9.59297 13.0549
1 3.84713 6.03112 6.94942
1 8.39276 12.641 1.51398
1 2.09629 8.31091 7.58025
1 6.27327 9.71315 0.746764
1 12.6952 4.15207 8.78695
1 3.5967 11.8877 1.40039
1 2.4126 5.31338 4.2302
1 9.28165 2.10663 12.95
1 10.6938 7.97783 5.44456
1 4.3853 8.91987 10.0557
1 0.328577 3.83201 5.82647
1 3.6008 2.8178 0.232028
1 0.688229 7.96167 4.52602
1 7.28767 9.42334 10.9588
1 10.0378 11.3172 4.21183
1 2.16056 10.8301 9.53267
1 3.16297 2.23848 2.5534
1 11.6532 2.21694 11.1454
1 1.37342 10.7728 3.1023
1 10.3722 10.3307 10.4686
1 10.3349 4.06052 4.39317
1 2.96888 3.08292 8.48628
1 11.4927 2.21545 1.99405
1 11.4532 0.210813 8.75576
1 11.9649 11.8927 1.20381
1 1.84102 0.4982 7.36378
1 0.0971164 10.8655 11.7114
1 0.97301 0.862171 4.33747
1 0.999333 1.0086 13.1196
1 11.1895 0.899513 5.67809
96
 Atoms. Timestep: 12000
2 0.853362 9.28717 4.90307
2 7.19685 7.39615 8.49716
2 3.02992 4.18412 5.63525
2 11.0798 6.29203 2.12555
2 2.00512 5.21678 7.8974
2 6.56031 0.134031 0.631856
2 12.4975 7.95382 8.43575
2 4.63769 8.10232 11.0423
2 11.1452 8.61509 6.34352
2 11.2571 9.13507 3.42318
2 4.06756 4.96031 7.90838
2 9.40334 0.804429 1.22185
2 2.08805 8.48793 6.85787
2 6.65826 10.8604 11.5057
2 9.92624 6.36504 8.85742
2 12.2352 7.36341 1.92206
2 5.83117 10.6704 1.15528
2 6.82318 9.0198 10.2506
2 3.83855 6.91583 5.1969
2 4.68506 10.1563 2.20267
2 1.63506 6.27668 9.901
2 8.60639 12.1678 2.97939
2 11.9637 5.57756 7.36875
2 12.4061 8.7772 0.39805
2 10.2077 8.60123 8.22561
2 1.77707 9.0192 2.16983
2 2.92473 3.05559 9.70349
2 10.8223 5.16931 4.37035
2 1.72502 8.89328 8.87816
2 4.60034 10.5758 12.6669
2 9.62095 3.57654 10.394
2 2.77467 10.9394 11.435
2 4.72572 4.8519 4.86894
2 9.87056 1.42846 12.0334
2 11.239 11.5564 4.95085
2 4.39261 8.54977 8.61397
2 1.25745 6.30567 5.62561
2 1.62904 0.685948 10.536
2 3.34335 8.55247 4.0389
2 8.78148 10.1668 10.0037
2 11.0898 10.8748 0.39329
2 1.72187 12.2327 5.69887
2 2.40242 3.42658 2.94728
2 11.8681 1.54515 6.92523
2 12.4084 4.54112 2.27967
2 12.2933 11.91 8.08308
2 0.394099 11.0508 11.9212
2 0.00531607 3.60893 6.03522
2 11.994 2.24748 1.42325
2 10.3837 11.3414 7.85196
2 0.293491 10.3554 1.70384
2 1.92857 1.14911 8.40414
2 1.4042 1.22895 3.19119
2 2.57399 10.9146 7.69631
2 11.5975 0.325921 3.05446
2 10.2184 0.833117 9.13968
2 0.551406 8.57645 11.2807
2 3.36584 1.7963 4.42585
2 11.6811 1.74021 11.1441
2 10.6252 1.00202 5.09764
2 10.6331 10.0197 10.9228
2 11.3507 3.01044 3.73394
2 11.8747 0.557059 13.2908
2 2.55517 11.6337 3.02982
1 10.9558 7.20361 7.46571
1 12.3627 8.85109 2.17648
1 2.67632 4.86817 8.99462
1 7.76959 0.604533 1.74924
1 0.887415 7.74506 9.74277
1 5.69441 11.7166 12.6712
1 10.0403 5.30544 10.1026
1 3.67741 9.44613 11.6695
1 3.8439 5.58916 6.26756
1 10.6192 1.65619 0.571255
1 11.7597 9.82925 5.12941
1 5.74672 7.93724 9.7378
1 1.00831 4.95342 6.54398
1 2.32183 11.586 10.1039
1 2.28507 7.88139 5.21269
1 7.22124 10.722 10.0005
1 10.1856 12.3395 3.79495
1 3.00446 9.44211 8.06108
1 3.49561 3.52388 4.07866
1 10.0567 1.97203 10.4869
1 3.07804 9.94442 2.68764
1 10.1936 9.96671 9.32242
1 10.9245 4.86365 2.8815
1 1.81383 2.04992 9.82573
1 0.91813 2.91109 2.43716
1 11.0221 0.230167 7.64544
1 12.2228 11.845 1.58494
1 1.44162 12.1765 7.6097
1 11.7843 9.50329 12.0544
1 2.00779 0.315164 4.30453
1 0.288616 0.391218 11.6722
1 11.5414 2.42709 5.31204
96
 Atoms. Timestep: 14000
2 0.843925 6.92476 4.83332
2 4.81793 7.32001 9.45536
2 11.8392 2.37511 5.99241
2 9.99389 5.80752 3.04031
2 10.857 4.65603 7.26111
2 6.10035 0.518927 1.38703
2 12.1414 7.4349 9.12801
2 3.91354 10.0769 10.229
2 11.4787 9.30282 6.01774
2 9.74955 9.98514 2.32492
2 3.54697 5.43871 7.49889
2 8.3037 2.05285 0.987643
2 2.95569 7.55154 6.72763
2 7.20201 10.7198 12.6861
2 9.96665 6.52452 8.57568
2 9.94055 6.99279 1.96454
2 5.27049 10.1558 2.1092
2 6.09093 10.2885 9.89155
2 3.47865 5.1387 5.52808
2 4.96516 9.17518 3.25792
2 2.49736 6.79423 9.8283
2 8.66858 0.611881 2.42084
2 11.8268 4.68395 4.76616
2 11.7481 8.70082 12.702
2 10.3508 9.30862 8.71077
2 1.90637 9.46898 3.11043
2 4.32888 4.58671 10.1097
2 9.80066 3.96105 1.84192
2 1.60265 8.74903 8.23791
2 4.63466 10.9953 12.6304
2 10.8618 4.1453 10.25
2 4.39293 0.389935 10.8075
2 4.6284 3.08735 5.47987
2 9.87511 2.17537 12.1049
2 10.8106 10.602 4.05114
2 4.03071 9.55481 8.01775
2 1.19265 5.40384 6.30707
2 2.8162 2.42006 11.4779
2 2.99963 7.4834 4.30436
2 8.88349 10.7214 9.99699
2 1.40558 9.86413 0.771228
2 1.97189 0.352004 5.17192
2 2.35254 2.44254 3.06969
2 9.22338 1.51941 7.07796
2 12.0926 3.38119 2.78519
2 11.8542 0.631171 7.09408
2 1.12118 12.0331 11.9598
2 11.3935 0.76454 3.83822
2 11.2115 1.89291 1.52999
2 11.004 11.7288 8.80325
2 11.9276 9.30371 2.62678
2 5.06307 3.67068 8.22709
2 1.32162 12.1113 2.77509
2 2.73144 9.80398 5.44354
2 11.6674 11.2994 2.332
2 9.83376 2.09533 9.30993
2 0.935669 8.56524 11.2658
2 3.88991 1.37667 3.84507
2 0.0713452 1.69088 11.2983
2 9.48423 0.414804 4.53338
2 11.8755 10.9765 10.8108
2 9.76791 3.17055 4.61467
2 1.30115 2.28304 1.23043
2 3.85805 10.6748 3.94096
1 10.8946 7.94487 8.00509
1 10.6884 8.6439 1.72525
1 3.75657 6.03963 9.32015
1 7.37722 1.34313 2.01467
1 1.23824 7.86098 9.65911
1 5.90791 10.9895 0.891003
1 10.0008 5.04546 8.78878
1 3.84631 11.1885 11.2845
1 4.4872 4.29588 6.70851
1 9.84633 2.80627 0.83733
1 11.4524 7.95153 5.2914
1 5.23663 8.97173 9.21448
1 12.1895 3.91707 6.26442
1 4.35664 1.98444 11.1161
1 2.41563 6.48201 5.74531
1 7.57894 10.4839 11.1173
1 10.059 11.6063 3.01528
1 2.68057 9.34706 7.19873
1 3.80413 2.93467 3.90236
1 10.7501 2.25853 10.781
1 3.48415 9.03881 4.04252
1 10.4918 10.4024 9.83248
1 10.5777 4.30894 3.29586
1 5.50789 3.54701 9.78067
1 0.578242 1.84804 2.7107
1 10.4793 1.06394 7.99439
1 1.03966 10.4481 2.14685
1 12.2396 0.772576 5.49809
1 0.711636 10.0854 11.792
1 2.92275 12.24 3.92745
1 1.57387 1.72971 12.2942
1 9.26235 1.80906 5.34286
96
 Atoms. Timestep: 16000
2 1.26483 7.95416 5.3703
2 3.36122 7.13091 9.03547
2 11.6808 2.72822 6.46462
2 9.11716 7.08436 3.33772
2 12.7553 3.89571 8.31701
2 7.4296 10.8721 13.2867
2 12.1712 7.96294 11.7704
2 4.88432 10.4264 9.27496
2 10.8549 8.38178 6.16431
2 11.0396 10.2523 2.25727
2 2.58245 5.38387 7.42694
2 8.42112 1.32457 1.36438
2 3.0501 9.45947 5.66754
2 7.64343 8.18157 7.02859
2 11.0841 5.79454 10.0598
2 9.92782 7.91554 2.30601
2 6.77606 9.34521 1.50814
2 5.71976 8.64552 8.52549
2 3.66475 6.93954 5.35033
2 6.0648 10.2666 2.74856
2 1.11029 7.2875 9.90211
2 9.16603 11.5282 2.91891
2 11.7576 6.14459 6.69073
2 11.1779 9.69099 12.8536
2 9.87647 8.1796 10.711
2 3.0643 11.1724 2.37641
2 2.60724 4.86899 9.68027
2 9.3298 3.45121 2.2528
2 3.39089 8.59252 10.3868
2 8.74234 8.23862 12.1003
2 11.2349 2.91302 10.4006
2 5.02993 1.00721 10.297
2 3.13235 4.5117 4.94724
2 9.42558 2.17672 12.1054
2 10.6098 9.75294 5.19479
2 3.52482 9.73454 7.69463
2 1.16422 4.29297 5.34558
2 3.01277 1.65624 11.78
2 3.88992 9.33283 3.68472
2 8.49893 9.12454 9.17748
2 1.01425 10.991 0.387121
2 1.33884 0.43256 4.83152
2 0.796928 2.85021 3.30339
2 9.16589 1.03379 7.29952
2 8.82614 5.57886 3.96502
2 11.1939 12.4029 6.61717
2 11.6785 12.2184 11.7353
2 11.6885 1.42395 3.79773
2 11.3047 2.33898 1.20929
2 10.5957 10.4152 8.53725
2 0.797176 9.42511 2.31881
2 4.34773 4.4277 7.74649
2 0.606868 12.3667 2.06602
2 5.06666 10.4868 5.02939
2 11.9548 11.4804 4.90396
2 11.0909 0.711263 9.75488
2 0.930456 9.78285 10.8259
2 3.10294 2.49525 3.64016
2 0.292391 1.91737 11.6523
2 9.30358 12.1033 4.88339
2 10.8155 10.2893 10.5172
2 8.72226 3.25272 5.16834
2 1.32046 2.09805 1.27625
2 4.01891 -0.127927 4.0854
1 10.8923 7.00732 11.3759
1 11.6318 8.76331 1.54341
1 1.84924 6.02267 8.79084
1 8.22147 12.059 1.4876
1 1.576 8.15354 11.0735
1 7.34221 9.28145 12.8093
1 11.7474 4.28282 9.70562
1 5.25348 11.583 10.6619
1 3.73042 5.18006 6.40681
1 9.52411 2.51136 0.954622
1 11.9615 7.28651 5.61002
1 3.95468 8.90804 8.94811
1 0.0132733 4.34001 6.48005
1 4.48643 2.25756 11.1755
1 2.74891 8.04756 4.90552
1 7.06511 9.11348 8.01926
1 10.4932 10.9647 3.8412
1 4.41736 10.6385 6.71457
1 1.98249 3.59021 4.02613
1 10.681 1.52607 11.2519
1 4.49176 10.6864 3.42262
1 10.0223 9.07146 9.50852
1 9.17862 4.13868 3.63597
1 3.99034 3.94052 9.4781
1 12.3329 1.67853 2.45097
1 10.6262 12.4044 8.17914
1 1.60142 10.8007 2.09087
1 12.0995 0.869032 5.49783
1 12.0745 10.6326 11.863
1 2.83226 0.885722 4.06006
1 1.62067 1.64369 12.6177
1 9.10252 1.58543 5.6897
96
 Atoms. Timestep: 18000
2 1.79378 6.50661 3.77822
2 4.21266 7.81911 9.33802
2 10.7065 3.43432 5.46828
2 10.3975 7.47724 3.71135
2 11.4037 4.20554 8.26814
2 8.1031 11.4555 0.736069
2 12.3296 8.25043 11.4598
2 4.16709 10.8297 9.02612
2 11.634 6.42162 4.11914
2 10.5615 11.4485 2.97706
2 2.69 5.81261 7.95023
2 9.36256 0.840937 0.762633
2 3.64898 7.47852 5.02788
2 6.80841 9.62975 12.9169
2 10.717 6.26033 10.5184
2 10.8132 8.70879 2.67923
2 6.81239 9.90242 1.73849
2 5.26085 9.15559 10.5729
2 3.83225 5.55711 5.34946
2 5.62466 10.7392 2.35022
2 1.98263 7.57867 10.1107
2 8.50787 12.4753 3.063
2 -9.581e-05 5.41305 5.8897
2 10.993 10.2366 0.695823
2 9.6888 7.9105 12.3932
2 2.78579 10.0307 2.26792
2 4.03732 5.32589 9.88937
2 8.9831 2.85731 1.63571
2 2.36817 9.71364 10.0815
2 9.23073 8.83154 0.302384
2 10.2771 3.80727 10.4059
2 4.7173 0.225575 9.40664
2 2.03561 3.66753 5.76958
2 10.6852 2.79029 12.3782
2 9.6745 10.8242 4.74006
2 3.56673 9.11908 7.79956
2 8.7463 4.70238 9.09313
2 2.65787 1.24317 11.1117
2 3.63883 8.35965 3.15717
2 7.6436 10.7206 10.1108
2 0.765247 10.1388 0.19419
2 5.27142 12.3772 6.33375
2 1.19786 1.76284 3.49893
2 9.20436 1.59351 6.48026
2 7.14619 1.36207 1.804
2 11.3822 0.216078 7.53268
2 0.239399 12.1408 12.1834
2 1.33839 0.533076 5.68816
2 11.4553 1.90058 1.82675
2 9.10118 12.2999 8.84803
2 12.6416 10.0061 2.74342
2 3.73178 3.80845 7.54181
2 0.46723 12.0968 2.06648
2 3.62602 9.78191 4.95483
2 11.354 12.0711 4.81433
2 11.0275 1.96593 9.18485
2 0.70607 10.2318 11.1854
2 3.78713 1.95858 5.13533
2 12.466 1.43946 11.2171
2 9.74596 1.51825 4.28748
2 10.4684 10.5701 11.2867
2 8.11686 3.18447 4.34448
2 0.983354 1.51877 0.206337
2 4.69832 11.6657 4.03342
1 11.0061 7.16205 11.81
1 10.7601 10.2398 2.2572
1 3.23342 6.59864 9.6587
1 8.26809 0.186057 1.52685
1 1.10369 8.89542 10.6363
1 8.13225 9.94875 0.955125
1 10.3981 4.98885 9.469
1 4.72982 11.7827 8.06785
1 2.84541 4.74286 6.5584
1 10.1714 2.18234 0.743203
1 0.384385 5.79489 4.036
1 3.81759 9.33453 9.37948
1 11.4959 4.42669 6.53298
1 4.35781 1.43969 10.2981
1 3.41012 6.72761 3.72202
1 6.57909 9.98979 11.2153
1 9.81325 12.3207 4.07308
1 3.75875 8.72904 6.14204
1 2.05124 2.00987 5.02702
1 11.3111 2.38548 10.8492
1 3.99594 10.1715 3.42677
1 8.96941 11.38 10.2792
1 7.51253 3.02177 2.88357
1 4.4843 3.73027 9.43125
1 0.578783 1.4027 2.07759
1 9.87117 1.10019 8.11904
1 1.53854 10.6583 1.90841
1 12.2965 12.4373 6.14737
1 11.982 10.6104 12.5435
1 4.53192 0.444267 5.0432
1 0.998305 0.634841 11.5119
1 9.33542 2.61262 5.34827
96
 Atoms. Timestep: 20000
2 11.1021 7.14434 4.33434
2 4.10859 7.39447 8.636
2 10.7831 4.28001 6.43077
2 11.3802 8.27396 12.9544
2 10.078 6.05495 8.74508
2 7.2761 11.4537 1.69017
2 0.708707 9.11593 10.7549
2 6.14384 10.0471 9.30566
2 9.22486 9.42165 4.985
2 10.461 10.8261 2.96624
2 2.63551 5.75787 6.91424
2 10.1427 -0.0545907 1.38737
2 2.32031 8.53205 6.28683
2 7.66044 9.18005 13.0251
2 11.2658 6.90837 10.7745
2 11.0537 9.45599 0.920831
2 5.5412 9.94457 2.10596
2 5.99074 8.81367 10.8905
2 0.756593 5.34658 4.81765
2 4.60943 9.27321 3.07131
2 1.86436 7.59478 8.86569
2 8.86905 11.9741 3.41874
2 9.35456 6.81515 6.21164
2 11.1232 11.2686 12.7941
2 7.86793 11.837 9.23561
2 2.37052 9.28513 1.92502
2 2.81578 5.09115 9.84754
2 10.2623 2.75783 1.92542
2 3.52763 9.82068 10.0032
2 7.00442 8.21801 1.72871
2 10.9737 4.3254 11.3957
2 5.35095 12.189 9.61132
2 2.37481 3.28369 5.36024
2 10.6454 2.06513 12.1731
2 1.21464 10.2453 5.66234
2 4.15868 9.14025 7.65315
2 8.44704 5.77666 10.8093
2 3.00845 0.243623 11.3058
2 1.71899 8.1448 4.3028
2 8.41067 9.88645 10.6535
2 0.891014 11.3631 12.6265
2 5.28973 11.8727 6.63481
2 1.52562 2.06988 3.30741
2 10.6311 1.19034 7.05182
2 8.15203 1.55415 2.40341
2 0.424727 12.0862 7.27773
2 0.467824 0.460349 11.161
2 1.83587 0.384777 5.45423
2 12.148 1.39994 1.38691
2 10.2562 11.6307 8.10777
2 0.395613 11.5027 1.69738
2 2.43097 3.66104 7.4502
2 2.32871 12.204 1.79639
2 1.684 10.0405 8.08677
2 11.4808 11.582 4.87527
2 11.4537 0.989368 9.76451
2 0.503056 10.8702 9.78117
2 3.74617 0.720517 4.6571
2 1.70778 1.95055 9.9347
2 9.38634 11.2287 6.33461
2 10.6759 11.3753 10.3343
2 10.4453 2.62691 4.31256
2 1.66922 1.94232 0.224115
2 3.34454 10.3718 5.21112
1 12.2177 7.92534 11.4673
1 11.1148 10.8936 1.58681
1 2.80177 6.37155 8.70343
1 8.534 12.4084 2.00077
1 1.67386 9.52741 9.64972
1 7.25437 9.88341 1.40721
1 10.0461 5.68732 10.4455
1 6.36449 11.5016 8.13077
1 1.9082 4.7171 6.07201
1 10.7455 1.5407 0.830166
1 9.92309 7.95539 5.23878
1 4.92467 8.67175 9.42583
1 9.89906 5.60944 7.06732
1 4.07323 11.5226 10.3335
1 0.379897 7.01274 4.43722
1 7.3886 8.75936 11.3542
1 9.72272 10.9281 4.52267
1 2.80029 9.80447 6.98521
1 2.56988 1.67103 4.58677
1 11.4938 2.55683 10.7816
1 3.10953 9.15631 3.63138
1 9.09797 11.0422 9.67603
1 8.71086 2.65205 3.26088
1 2.25828 3.5213 9.42126
1 1.36392 1.40698 1.92414
1 11.7194 0.466447 8.23338
1 1.91047 10.7958 0.993116
1 0.516379 11.7187 5.50876
1 12.0192 11.3556 11.4685
1 4.36876 11.7773 5.30293
1 1.72982 1.28887 11.3324
1 10.5317 2.56022 5.94569
96
 Atoms. Timestep: 22000
2 -0.0287577 7.2047 6.41751
2 4.80584 7.24679 9.55946
2 9.9537 3.93877 5.87709
2 10.2307 9.17639 11.4755
2 8.37179 5.04916 8.15096
2 7.01047 10.938 2.49919
2 0.0235596 8.47083 10.3043
2 6.16643 9.02107 7.62647
2 10.254 8.88853 4.74762
2 10.1539 10.3729 2.77495
2 3.16819 6.22031 8.53157
2 10.228 12.4722 0.915404
2 1.9044 8.22805 6.27226
2 6.12287 12.2496 10.3953
2 10.3693 6.52464 9.23809
2 10.2318 9.77543 13.0082
2 5.91636 8.96419 2.92587
2 6.64943 10.0692 9.40518
2 2.06297 5.29653 6.06907
2 4.49696 8.62327 2.86353
2 2.54959 7.95825 10.4287
2 8.73003 10.8971 4.86473
2 9.70234 6.87926 6.70103
2 12.2267 0.0828919 12.5954
2 8.65374 11.076 7.10296
2 2.41111 9.72153 1.61066
2 1.90864 5.82942 10.867
2 10.2005 1.74349 1.7255
2 4.53193 10.7152 9.54278
2 8.38726 9.72659 1.09938
2 9.40713 3.97673 10.6398
2 4.88848 12.4961 8.21528
2 3.2089 3.04666 6.05278
2 10.8102 2.18049 12.1825
2 1.37403 10.2118 6.3173
2 4.28462 8.96928 8.44847
2 4.24523 6.10129 11.7142
2 3.86806 0.877783 10.8669
2 1.5901 7.23972 4.0254
2 8.77406 11.3515 10.3019
2 0.802995 10.8661 12.5551
2 6.29449 11.6041 5.40303
2 1.59354 2.2708 3.39552
2 9.79154 1.2348 6.85686
2 7.6058 0.612722 3.77073
2 0.317507 0.481652 6.64089
2 1.48845 0.5016 10.9623
2 2.2221 12.6473 5.16203
2 12.3135 1.75397 1.45811
2 10.4579 1.22899 10.4669
2 11.9199 10.7082 1.27774
2 1.86893 4.71696 8.76977
2 1.1845 12.4423 2.06377
2 1.81773 9.32251 8.07395
2 12.1981 10.8157 4.82791
2 10.0836 11.8836 8.48749
2 1.41299 10.4328 10.346
2 3.79333 0.91378 6.00226
2 2.2452 3.21658 10.3764
2 10.4379 11.7531 5.46427
2 11.4475 11.729 11.0068
2 9.90585 2.20371 4.15574
2 1.48103 1.73034 13.0442
2 3.90758 10.7906 6.78874
1 10.9771 8.17253 10.1159
1 10.2465 10.8166 1.15667
1 3.4887 6.59547 10.4063
1 7.38609 11.6222 4.10779
1 1.56002 9.0157 9.66308
1 7.1377 9.32327 1.86224
1 9.22394 5.21212 9.7476
1 7.30238 10.4698 6.72339
1 2.7931 4.54855 7.34398
1 11.3737 1.07648 0.244598
1 11.0265 7.80712 5.85254
1 5.37216 9.13371 9.44256
1 9.23216 5.11599 6.66627
1 4.70798 0.138357 9.71822
1 1.53309 6.83575 5.62021
1 7.22545 11.2592 9.93035
1 10.3514 10.5129 4.3826
1 2.93571 9.33245 6.94662
1 2.69407 1.77375 4.94465
1 9.76671 2.4812 10.8664
1 2.69428 8.04743 2.4516
1 10.1978 12.2604 10.0967
1 9.02404 1.424 3.09159
1 1.1946 4.4899 10.314
1 1.51664 1.43221 1.83033
1 9.96213 12.1641 6.86412
1 1.28777 10.8847 0.967787
1 0.969024 11.6484 5.81175
1 0.464652 11.8832 11.2074
1 4.6678 12.2738 6.57416
1 2.52755 1.94139 11.2883
1 10.2138 2.32322 5.88506
96