96
 Atoms. Timestep: 0
2 0 7.95642 4.74695
2 4.63304 0 11.358
2 0 4.63304 4.74695
2 7.95642 0 11.358
2 0 4.63304 8.47514
2 7.95642 0 1.8641
2 0 7.95642 8.47514
2 4.63304 0 1.8641
2 10.7421 8.43088 6.61105
2 4.15858 10.7421 0
2 1.84736 4.15858 6.61105
2 8.43088 1.84736 0
2 1.84736 8.43088 6.61105
2 8.43088 10.7421 0
2 10.7421 4.15858 6.61105
2 4.15858 1.84736 0
2 10.5201 6.29473 5.04003
2 6.29473 10.5201 11.6511
2 2.06934 6.29473 5.04003
2 6.29473 2.06934 11.6511
2 2.06934 6.29473 8.18207
2 6.29473 2.06934 1.57102
2 10.5201 6.29473 8.18207
2 6.29473 10.5201 1.57102
2 10.1594 8.65935 9.20274
2 3.93011 10.1594 2.59169
2 2.43004 3.93011 9.20274
2 8.65935 2.43004 2.59169
2 2.43004 8.65935 9.20274
2 8.65935 10.1594 2.59169
2 10.1594 3.93011 9.20274
2 3.93011 2.43004 2.59169
2 2.43004 3.93011 4.01936
2 8.65935 2.43004 10.6304
2 10.1594 8.65935 4.01936
2 3.93011 10.1594 10.6304
2 10.1594 3.93011 4.01936
2 3.93011 2.43004 10.6304
2 2.43004 8.65935 4.01936
2 8.65935 10.1594 10.6304
2 0 10.703 0
2 1.88643 0 6.61105
2 0 1.88643 0
2 10.703 0 6.61105
2 0 0 1.872
2 0 0 8.48305
2 0 0 11.3501
2 0 0 4.73905
2 11.2706 2.31295 2.18973
2 10.2765 11.2706 8.80078
2 1.31887 10.2765 2.18973
2 2.31295 1.31887 8.80078
2 1.31887 2.31295 2.18973
2 2.31295 11.2706 8.80078
2 11.2706 10.2765 2.18973
2 10.2765 1.31887 8.80078
2 1.31887 10.2765 11.0324
2 2.31295 1.31887 4.42131
2 11.2706 2.31295 11.0324
2 10.2765 11.2706 4.42131
2 11.2706 10.2765 11.0324
2 10.2765 1.31887 4.42131
2 1.31887 2.31295 11.0324
2 2.31295 11.2706 4.42131
1 11.0086 7.83654 8.10972
1 4.75292 11.0086 1.49867
1 1.5809 4.75292 8.10972
1 7.83654 1.5809 1.49867
1 1.5809 7.83654 8.10972
1 7.83654 11.0086 1.49867
1 11.0086 4.75292 8.10972
1 4.75292 1.5809 1.49867
1 1.5809 4.75292 5.11238
1 7.83654 1.5809 11.7234
1 11.0086 7.83654 5.11238
1 4.75292 11.0086 11.7234
1 11.0086 4.75292 5.11238
1 4.75292 1.5809 11.7234
1 1.5809 7.83654 5.11238
1 7.83654 11.0086 11.7234
1 10.1088 10.1088 3.30552
1 2.48067 10.1088 9.91657
1 2.48067 2.48067 3.30552
1 10.1088 2.48067 9.91657
1 2.48067 10.1088 3.30552
1 10.1088 10.1088 9.91657
1 10.1088 2.48067 3.30552
1 2.48067 2.48067 9.91657
1 0 1.60471 1.57853
1 10.9848 0 8.18958
1 0 10.9848 1.57853
1 1.60471 0 8.18958
1 0 10.9848 11.6436
1 1.60471 0 5.03252
1 0 1.60471 11.6436
1 10.9848 0 5.03252
96
 Atoms. Timestep: 2000
2 12.5731 7.91692 4.81761
2 5.08658 0.0935666 10.9742
2 12.3847 4.38043 4.80965
2 7.63716 0.079063 11.8659
2 12.4378 4.42939 8.93533
2 8.53103 -0.189662 1.62319
2 -0.0511136 7.5207 8.96156
2 4.75454 12.2412 1.85429
2 10.7057 8.22953 6.8988
2 4.86992 10.5552 13.1699
2 0.816084 3.65366 6.72653
2 8.60242 2.02907 -0.146171
2 1.561 7.90006 7.09101
2 8.89686 10.947 -0.378106
2 10.0232 4.93013 7.16442
2 4.36983 1.13716 12.9855
2 10.5223 6.52923 5.01273
2 6.14054 10.7471 11.4055
2 1.17131 6.02256 5.06069
2 6.76038 2.15102 11.2613
2 1.62831 5.87519 8.24403
2 6.21095 1.4959 1.66443
2 10.5261 6.62659 8.73397
2 6.61194 10.4467 1.38328
2 10.9729 9.67072 8.84957
2 3.45017 9.50581 2.349
2 1.95792 2.90761 8.68398
2 8.81722 1.83786 2.4709
2 2.58625 8.7595 8.95637
2 9.29122 10.405 2.19484
2 10.0635 4.12354 9.53545
2 3.55231 1.2973 1.93569
2 2.63851 3.57262 3.96184
2 8.61533 2.65177 10.7519
2 10.5524 8.98277 4.18583
2 3.79236 10.6523 10.4133
2 9.46426 3.98511 4.47178
2 3.71752 1.91109 10.7022
2 2.08561 8.55365 4.4761
2 8.85693 11.1941 10.6433
2 0.0434108 10.3274 -0.110836
2 1.85438 11.9979 6.25945
2 -0.020439 2.39552 0.0335446
2 10.8563 0.589517 6.41504
2 12.8032 12.808 0.935146
2 0.0833028 0.246968 8.56091
2 0.867037 12.6167 11.9207
2 0.116181 0.554777 4.30061
2 11.1619 2.46494 2.25879
2 11.1004 12.0061 9.15454
2 1.0895 10.324 1.73279
2 2.28717 0.427113 9.14037
2 0.911673 1.66178 1.83609
2 2.1087 10.9676 8.54963
2 11.3069 10.3249 2.07185
2 10.911 1.61342 8.86147
2 1.1531 10.1021 10.9823
2 2.04864 1.37268 4.36374
2 11.0715 2.83227 11.6744
2 10.2638 11.7185 4.4879
2 11.9874 10.9338 10.9067
2 10.3679 1.57661 4.13352
2 1.24971 1.76821 11.259
2 1.56855 11.0474 4.07559
1 11.4086 8.26992 8.50445
1 4.90084 10.6754 1.46431
1 0.910755 4.21031 8.19192
1 7.84939 1.34659 1.38872
1 1.59042 7.41175 8.77774
1 8.13791 11.2397 1.28122
1 11.0634 5.09024 8.63016
1 4.95961 0.743838 1.2006
1 0.980143 4.30356 4.85513
1 8.05036 1.76658 11.9412
1 11.0733 7.97586 5.29898
1 4.7202 11.5015 11.5016
1 10.547 4.83577 5.53922
1 5.06937 1.81998 11.5076
1 1.30448 7.51655 5.46027
1 7.58942 11.2997 11.6327
1 10.1855 10.3786 3.45294
1 2.40796 10.2923 9.9626
1 2.04949 2.30541 2.99547
1 10.0107 2.55899 9.99567
1 2.20494 9.90761 3.40573
1 10.6264 11.0298 10.2165
1 10.0466 2.79562 3.17933
1 2.39496 1.86185 9.82019
1 12.3308 1.52518 1.08565
1 11.4067 0.142955 7.95363
1 12.4701 10.8876 1.37537
1 1.6651 12.2407 7.95136
1 0.273448 10.7912 12.1297
1 1.54146 12.4794 4.74597
1 12.8457 2.61646 12.168
1 11.5066 0.445432 4.50399
96
 Atoms. Timestep: 4000
2 12.7631 8.35866 4.43487
2 5.15279 12.5585 12.2167
2 0.203936 4.93013 5.53576
2 8.83306 -0.171511 11.9117
2 0.270245 4.62139 8.73613
2 8.09487 12.5433 1.53508
2 0.0102483 8.75452 8.37883
2 3.96438 0.298064 2.27748
2 10.8032 7.85198 6.4875
2 3.66188 11.4086 13.036
2 2.23698 4.87713 6.74118
2 7.97769 1.57736 -0.0596563
2 1.9867 8.53297 6.55479
2 10.0796 10.6872 -0.206971
2 11.8026 5.48138 7.02072
2 5.07486 1.76126 13.3943
2 10.7486 6.09057 4.93605
2 7.19255 11.0769 12.8831
2 2.10469 7.19249 4.6536
2 6.92148 1.46139 11.5079
2 1.52124 6.63664 8.116
2 6.09409 1.48231 2.44163
2 11.9387 6.71229 8.80525
2 5.52283 10.5667 1.11775
2 9.96694 9.04789 8.88811
2 2.62954 11.3556 1.7766
2 2.69621 3.31601 8.63648
2 9.03165 2.19415 2.26021
2 3.14655 8.83336 8.84603
2 8.19784 9.864 2.97085
2 10.6089 3.84928 8.31246
2 3.28691 2.71507 1.70208
2 1.77812 4.21966 3.27657
2 9.40767 2.48004 10.8785
2 9.89816 8.57243 4.11337
2 4.57675 10.5854 10.7434
2 10.728 3.36851 4.68062
2 4.06266 1.53295 10.6656
2 1.97972 9.73476 3.5937
2 9.24707 10.4021 11.1714
2 11.8871 9.43134 12.9484
2 0.717183 -0.056863 6.80175
2 11.7957 1.53834 -0.52914
2 10.021 11.6239 6.95256
2 11.5577 12.5013 1.34416
2 12.2965 12.0925 8.30648
2 1.024 -0.0114586 12.106
2 11.9288 -0.0536754 4.49778
2 10.9401 1.67682 2.23687
2 10.9213 10.8823 9.5128
2 0.393484 11.202 1.4811
2 1.20412 0.815348 9.48178
2 0.988714 1.53468 1.69088
2 2.19679 11.0671 8.42358
2 10.5982 9.75449 1.94986
2 10.2666 1.02961 8.38559
2 2.23851 11.0591 10.5335
2 1.22698 1.26005 4.06067
2 11.4154 1.69385 10.6538
2 10.4555 10.9129 4.3942
2 10.5727 8.85976 11.9121
2 9.90414 0.915786 4.87778
2 1.23316 2.06578 11.1431
2 1.00074 11.6473 4.00401
1 11.3468 8.34994 7.96284
1 4.04372 11.8919 1.14812
1 1.7228 4.97451 8.43137
1 7.76254 1.31665 1.61433
1 1.53548 8.26238 8.08472
1 7.07089 10.894 1.91199
1 11.5814 5.19607 8.58355
1 4.63533 1.61232 1.36354
1 1.64652 5.48368 5.32938
1 8.53576 1.40409 12.0157
1 11.1611 7.74952 4.91926
1 5.96763 11.2209 11.5908
1 11.5004 4.73249 5.18603
1 4.91713 1.29939 11.795
1 1.45228 8.48567 5.05814
1 8.83482 11.2186 12.3984
1 9.80238 9.80551 3.38903
1 3.4427 10.2514 9.23133
1 1.95657 2.5513 2.83056
1 10.3041 2.42753 9.27014
1 1.53733 10.8116 2.71021
1 10.347 9.49139 10.2885
1 10.1587 2.28289 3.67212
1 2.54379 2.17483 10.1876
1 12.1135 1.11256 1.36304
1 10.7263 12.3189 8.58044
1 11.7105 10.4931 0.744884
1 1.05772 12.2186 8.63618
1 2.51589 12.0481 11.9753
1 0.596505 -0.0190216 5.0735
1 12.983 1.25844 11.5065
1 10.4054 12.1875 5.25112
96
 Atoms. Timestep: 6000
2 11.9811 8.16834 5.14121
2 5.76802 11.8357 11.6144
2 12.3421 4.78923 4.66791
2 9.16404 0.58645 12.8378
2 0.575875 4.68337 8.19881
2 7.75894 11.4936 0.269305
2 8.84466 6.4567 8.90888
2 3.85236 -0.151389 0.218127
2 10.0849 7.55461 7.49349
2 2.29695 10.2865 13.0235
2 1.99781 4.30847 5.89344
2 7.32404 3.16165 12.8132
2 1.82382 8.25904 6.94698
2 10.1472 11.012 0.0754797
2 10.8518 4.71677 6.77823
2 5.24837 1.17737 12.9784
2 10.1656 6.40786 4.71638
2 7.96171 10.5879 11.6944
2 1.71307 6.71633 4.74446
2 7.70748 1.13763 11.3684
2 2.94089 5.47816 7.79045
2 5.37367 3.11486 1.23427
2 11.2902 6.52215 8.78619
2 5.21682 10.7559 1.41446
2 11.061 8.88481 9.97752
2 3.07236 11.5262 2.04097
2 2.7382 2.57581 8.36148
2 8.0915 2.81373 1.63971
2 4.17261 7.80477 8.19524
2 8.1269 10.1615 2.93271
2 10.8358 3.7019 9.38564
2 2.93239 1.70566 2.04069
2 1.80142 4.09985 3.65323
2 9.17449 2.61527 10.4267
2 9.37056 9.36563 4.58986
2 5.5732 9.28782 9.98618
2 9.80351 4.02654 4.45305
2 4.82207 2.05977 10.5625
2 1.34032 10.1527 4.43373
2 9.64892 11.2018 10.8417
2 -0.259852 11.084 -0.0371642
2 12.654 12.4463 6.01855
2 12.4036 1.71424 -0.0600842
2 10.1844 12.5563 6.85454
2 11.6142 12.83 1.93371
2 0.491479 12.3446 9.20595
2 1.6089 11.6969 11.035
2 11.39 1.27743 3.90794
2 11.2825 2.97826 2.09818
2 11.1897 11.0592 8.88482
2 0.442262 10.7911 2.30389
2 3.03478 0.332991 9.38072
2 0.493361 2.73476 1.82585
2 3.26752 10.127 9.17842
2 11.1069 10.0813 2.65346
2 11.1141 0.877635 8.51569
2 3.97344 7.52013 11.1424
2 1.20029 1.79464 4.07025
2 0.957668 0.377393 11.7112
2 9.02696 1.83733 7.64249
2 12.6067 10.3215 10.7705
2 7.13508 0.376182 7.48293
2 2.08147 2.29801 10.8552
2 1.30972 12.4022 3.97583
1 9.94606 7.65761 9.03508
1 3.64724 11.0597 0.713287
1 2.24168 4.03086 7.49355
1 7.06363 3.88875 1.02659
1 3.0675 7.15658 7.37785
1 6.88817 10.4905 1.35371
1 11.7255 5.09673 8.31128
1 4.14912 1.5938 1.09372
1 1.20961 5.26368 4.74077
1 8.60893 2.115 12.1175
1 10.3653 7.96166 5.73809
1 6.55522 10.5917 10.8796
1 11.0095 4.99721 5.1523
1 5.73154 0.876845 11.3766
1 1.16567 8.29195 5.26855
1 8.8353 11.5849 12.6604
1 9.51199 9.66261 2.98271
1 4.19626 8.78316 9.87472
1 1.96556 2.65338 2.66499
1 10.0061 1.8139 9.19099
1 1.94562 11.1184 2.94221
1 10.8834 10.511 10.29
1 9.69269 3.68437 2.79567
1 3.12472 1.85072 9.81216
1 12.0212 1.7283 1.40967
1 11.7451 12.1964 7.75714
1 11.642 10.9374 1.48622
1 2.25811 11.7018 9.47341
1 0.722616 10.6795 12.0705
1 -0.0576545 0.61563 4.57991
1 1.09585 1.90495 12.224
1 8.63601 0.470041 6.87854
96
 Atoms. Timestep: 8000
2 5.03932 7.18999 3.18145
2 3.68053 12.265 11.9277
2 0.5395 5.24825 4.77437
2 7.96479 0.967637 12.2123
2 0.30078 5.62838 8.11967
2 7.3315 11.3946 0.480236
2 8.36478 8.40975 6.91631
2 4.21391 0.0699178 2.22226
2 10.015 7.39689 6.0421
2 2.8302 11.4299 0.449585
2 2.5095 5.09293 5.91483
2 7.24264 3.13636 0.0336377
2 4.36362 7.1457 6.52226
2 9.74056 12.2585 12.7222
2 11.2927 4.6963 6.66129
2 3.94569 1.47443 0.313892
2 10.7196 6.53484 4.28574
2 6.54449 11.8667 11.2743
2 3.08388 6.69582 4.15614
2 6.44168 2.27089 11.4117
2 3.18781 6.27325 8.10485
2 5.21222 2.82813 1.87077
2 10.1319 6.17979 8.05949
2 5.37277 10.1921 1.54326
2 11.1392 8.26653 8.50554
2 3.5235 10.9937 3.38128
2 2.15341 3.86277 8.56185
2 7.99556 2.92769 2.67611
2 3.73149 9.07914 8.00719
2 8.27005 9.70375 1.37571
2 11.051 3.95077 9.17312
2 2.37182 1.68617 2.31935
2 2.15701 3.89633 3.66725
2 8.93868 3.17467 10.6124
2 10.1591 9.06653 3.67992
2 4.85107 10.8328 9.4176
2 10.6176 3.41718 4.45076
2 3.75769 1.72339 10.8279
2 3.537 8.71685 5.39059
2 9.34681 10.8675 11.1013
2 0.0928704 11.3922 12.5618
2 11.879 12.4956 6.14132
2 11.9041 1.89834 0.611192
2 9.55899 12.54 7.53223
2 11.8173 12.411 1.15916
2 0.140435 12.5236 8.44091
2 2.65248 10.9421 8.40965
2 1.9082 1.33803 5.29311
2 10.2493 1.61972 2.75488
2 11.2061 10.8318 7.89395
2 3.73207 11.0685 5.72444
2 2.36265 0.833021 8.95162
2 0.277803 2.04198 3.01683
2 0.569676 10.5488 9.54532
2 9.93279 10.7277 1.40621
2 10.4107 1.46294 8.77125
2 5.99323 10.0459 7.79892
2 12.4223 -0.0038949 3.88055
2 1.34966 0.933455 12.3441
2 11.3315 2.60676 11.0811
2 10.4343 9.81985 10.4621
2 5.78025 8.00047 8.24177
2 1.07989 2.64124 10.8822
2 1.2017 10.8845 5.17077
1 9.85706 7.76728 7.61121
1 4.00748 11.0157 1.64933
1 1.97839 5.26985 7.79429
1 6.78636 2.5181 1.58423
1 3.7053 7.62301 8.04222
1 6.90611 10.5613 1.90495
1 11.265 5.13412 8.25952
1 3.93865 1.99628 1.91099
1 2.08417 5.27666 4.29438
1 7.83347 2.78544 11.793
1 10.8284 8.02739 4.95148
1 5.06908 11.3681 11.1144
1 11.4456 5.02184 5.0329
1 4.80227 1.39108 12.1344
1 4.56953 7.5054 4.80698
1 8.11863 11.7533 12.2438
1 9.66595 9.04278 1.94539
1 4.18014 10.4662 7.28246
1 1.62295 2.44168 3.77319
1 10.388 2.68869 9.80725
1 2.77035 10.0432 4.68043
1 11.494 9.75199 9.13421
1 9.59042 2.95551 3.24606
1 2.12796 2.30411 9.66167
1 11.6273 1.07819 2.34586
1 11.2892 0.0924963 7.70943
1 11.4377 10.9934 0.551744
1 1.64958 11.8027 8.96491
1 1.88567 11.8101 12.3114
1 0.624249 12.3376 5.24124
1 12.4941 1.90603 12.021
1 6.99517 8.96373 7.47439
96
 Atoms. Timestep: 10000
2 2.48063 7.46759 2.25678
2 2.34639 10.91 10.9838
2 0.018491 4.90481 6.15522
2 8.92745 12.0544 11.0822
2 7.65896 4.08038 7.63211
2 7.58566 9.10034 -0.22787
2 8.80437 8.65524 8.27701
2 3.53874 12.6321 2.18629
2 9.81754 7.86748 6.21085
2 2.66061 10.7123 13.0952
2 2.05285 6.49357 7.51182
2 7.71529 0.65104 0.611573
2 12.0071 7.08973 2.54824
2 9.89379 9.17127 0.23194
2 10.0298 4.66266 6.56469
2 4.2124 1.80104 0.510862
2 9.92414 5.99236 4.0354
2 4.36579 7.52168 8.69117
2 1.42357 6.88766 5.05147
2 6.67183 1.30067 11.6947
2 1.70949 7.37626 9.96206
2 5.94599 1.46522 2.01458
2 8.65792 6.10216 8.81469
2 5.05949 10.4391 1.09484
2 11.3791 10.0518 7.95759
2 3.11224 10.2625 2.7276
2 3.76643 5.29294 9.84616
2 8.50019 1.3377 3.04852
2 4.58055 10.3965 7.99416
2 7.18365 9.92613 2.68578
2 9.63735 3.49919 8.9189
2 3.99708 2.7171 3.53451
2 3.10311 4.74273 5.62489
2 9.25232 2.05968 10.8286
2 8.97339 8.65622 4.07193
2 4.60004 10.2893 10.1378
2 10.6706 3.16678 4.37144
2 4.59758 2.51532 10.8341
2 1.67245 8.83821 3.61422
2 9.01599 10.7345 10.9502
2 12.1809 10.0943 12.7425
2 12.405 1.3105 5.69696
2 12.3572 2.84327 0.376158
2 11.0951 2.61042 7.07351
2 11.2818 11.9162 0.90071
2 0.997148 1.4887 7.4755
2 3.36694 0.575772 7.61239
2 1.61228 2.66315 5.15642
2 11.0421 1.75857 2.65865
2 11.7631 11.7361 6.8471
2 3.51115 11.1751 5.45515
2 3.30275 2.60378 8.84056
2 4.20457 2.31156 6.3815
2 1.16445 11.467 8.67525
2 10.1902 10.1659 2.50656
2 10.703 1.17975 8.544
2 8.40209 8.45618 10.7279
2 0.602351 1.14954 2.72668
2 1.24113 0.271769 0.549668
2 12.0985 1.9095 10.5846
2 1.58462 10.2541 5.87443
2 6.4425 8.37319 9.25807
2 2.36496 3.20846 10.9648
2 1.33731 12.2299 5.04427
1 10.2099 9.03488 7.6279
1 3.5462 11.0338 1.45075
1 2.97443 6.77753 8.96785
1 7.49424 1.43312 1.96504
1 4.96969 8.93874 8.87453
1 6.56316 9.62339 1.05988
1 9.09206 4.67061 8.06588
1 4.30284 1.54172 1.99874
1 1.67772 5.51426 5.93877
1 8.22156 0.82315 11.8241
1 9.97118 7.46354 4.46527
1 3.2707 11.4995 9.85254
1 11.1345 3.82084 5.82743
1 5.0982 1.72841 12.0787
1 1.00079 7.3747 3.36439
1 8.95715 9.45465 11.9846
1 8.85075 9.83428 3.25098
1 4.18118 11.5613 6.93824
1 3.21546 3.0936 4.90222
1 10.5389 2.1324 9.78969
1 2.09745 10.6645 4.4412
1 0.356306 10.4023 7.2467
1 9.73751 1.96626 3.9394
1 3.9576 3.64751 10.0325
1 11.9601 0.852246 1.34994
1 11.7365 0.873435 7.11047
1 11.1843 10.0065 1.29616
1 2.06043 0.932163 8.42924
1 1.3128 11.165 12.3708
1 0.909613 1.24917 4.35285
1 0.587654 3.14845 11.616
1 7.91512 7.52097 9.30774
96
 Atoms. Timestep: 12000
2 4.53468 6.28433 4.98933
2 1.89208 9.14352 1.06141
2 11.1494 4.89191 6.14694
2 5.57833 4.25525 10.9007
2 5.2969 5.34803 6.00312
2 7.25101 9.23376 12.5842
2 10.102 6.95665 9.4728
2 5.21791 0.75911 3.52102
2 10.3111 7.64793 6.58281
2 3.94256 10.7935 2.40879
2 1.74085 5.4643 6.27489
2 7.83711 4.39092 12.6223
2 3.01975 6.70898 2.04792
2 8.20396 10.7336 11.6137
2 8.14303 4.80731 6.28277
2 5.85198 1.07938 1.14059
2 11.7837 6.63555 4.25357
2 2.8056 6.03463 9.04751
2 2.55158 6.08848 4.18375
2 6.7435 2.09347 11.3325
2 1.00726 4.51061 8.78935
2 6.91429 3.41101 2.69407
2 7.19552 6.42027 8.1393
2 6.01753 9.97682 2.99453
2 10.9217 9.34467 8.77517
2 3.75195 10.7578 5.07624
2 4.1244 4.841 8.16767
2 9.6125 3.45521 2.17806
2 4.52086 9.19411 9.65306
2 8.8454 9.97629 3.14256
2 6.01347 3.84371 8.31306
2 4.31242 2.40805 2.59455
2 1.75998 3.80345 4.05538
2 8.48632 4.2155 10.3202
2 10.7321 8.89527 4.02632
2 3.17522 7.6692 11.177
2 9.71226 3.04283 4.53916
2 4.52299 2.3911 10.9085
2 3.29599 8.8293 4.07861
2 5.60628 9.96665 10.6667
2 1.36515 11.3145 1.94096
2 11.9078 0.13674 5.14266
2 0.807732 2.05354 10.6261
2 10.9761 2.59113 6.18519
2 10.6576 11.2335 11.4796
2 1.95751 1.90921 6.71357
2 4.53756 12.1087 7.9045
2 2.41385 1.12605 3.42467
2 11.4016 4.36899 3.60422
2 11.2922 12.1197 7.83889
2 3.26284 9.4468 7.22303
2 4.71974 2.57603 8.08175
2 3.54058 2.31062 5.44233
2 2.08777 11.357 8.9049
2 10.562 10.4932 1.5529
2 9.37785 4.4834 8.5722
2 7.47399 8.54503 9.98251
2 11.5167 1.32606 3.30659
2 1.9746 11.5144 11.8283
2 11.2099 4.86084 10.7669
2 1.12443 8.8011 5.97635
2 5.3038 6.77152 9.53355
2 2.82354 3.947 10.2167
2 1.56807 10.3225 4.17805
1 10.0997 7.8792 8.2262
1 4.86238 10.7511 3.67658
1 2.37221 4.955 7.57325
1 8.26347 4.34864 2.06717
1 3.85946 7.43982 9.62918
1 7.5227 9.61663 2.03654
1 6.53832 5.20086 7.0197
1 5.85896 1.9946 2.56459
1 0.988717 5.02067 4.80235
1 7.06763 3.63069 11.5615
1 11.3908 7.92752 5.4299
1 2.7089 7.66421 0.776806
1 9.58511 3.89935 6.79931
1 5.31794 1.02852 11.5909
1 3.7952 7.29944 3.84979
1 7.21806 9.56125 10.9631
1 10.4893 10.2902 3.14095
1 3.56661 10.8051 8.65787
1 3.01613 2.72895 3.85511
1 9.7581 5.42345 10.0508
1 2.51407 9.70315 5.48631
1 11.8635 10.8618 8.60928
1 10.7129 2.80819 3.12222
1 4.78781 3.6773 9.58296
1 0.607131 11.7033 10.848
1 12.0224 1.12248 6.46389
1 9.58717 10.7796 12.5062
1 3.6588 1.90148 7.00486
1 2.68964 10.7084 1.10537
1 12.493 11.7251 3.54236
1 1.01917 3.88256 10.5612
1 6.90372 7.08926 9.59787
96
 Atoms. Timestep: 14000
2 8.03831 6.68304 3.32722
2 2.79478 10.5848 11.2473
2 10.6186 4.40974 4.65826
2 4.41704 3.60955 12.1992
2 7.6986 4.97222 5.08404
2 8.31699 7.91894 1.05323
2 10.6696 5.31009 9.73379
2 6.30711 11.5431 4.31053
2 10.9105 7.0221 7.39179
2 2.19963 1.67566 11.6613
2 3.34046 5.69208 5.68036
2 6.48846 5.71518 2.53971
2 3.68897 8.8807 1.45655
2 8.73269 5.97004 10.8564
2 8.90623 4.54003 6.97452
2 6.618 1.70162 1.92224
2 1.04037 6.55322 4.70079
2 3.0677 6.63272 11.2896
2 3.67044 5.63135 2.90887
2 6.63396 3.34229 0.820032
2 2.20094 5.98575 7.7724
2 6.61646 3.64593 3.18417
2 9.49628 7.08348 5.87277
2 7.15741 9.05556 3.7302
2 10.5536 8.66862 9.85756
2 4.71804 9.1524 4.90967
2 3.32062 3.66646 7.27208
2 9.17085 4.54133 2.9413
2 2.43051 8.8534 9.11635
2 9.34689 9.30079 2.76513
2 6.86368 7.06061 6.86376
2 4.61559 2.03364 3.95695
2 2.25813 3.71143 4.47127
2 6.42422 6.32302 12.1102
2 10.7837 8.26988 4.23033
2 4.44468 8.88739 10.6617
2 0.943793 7.19625 11.3886
2 4.8367 2.03831 11.0302
2 3.54373 8.19798 3.53663
2 5.18525 11.3186 11.696
2 1.0954 11.2795 1.81345
2 11.3162 11.4416 4.75677
2 9.39345 2.98175 11.2412
2 10.0168 2.27691 6.61719
2 9.25324 11.0538 9.63752
2 1.07238 1.76561 7.64439
2 2.71626 12.0039 8.46142
2 2.53634 1.20497 4.19098
2 1.45843 4.78239 2.88449
2 9.63563 10.7549 7.25466
2 2.70649 9.53543 6.50174
2 2.40456 3.2143 9.67808
2 3.03353 1.83384 6.34271
2 11.7246 9.36659 8.35626
2 10.6261 8.9702 1.13984
2 11.4153 4.80253 7.34276
2 7.04406 6.92584 9.60395
2 11.8081 2.64689 3.17036
2 11.1385 1.42684 11.1564
2 11.1263 4.81383 11.9882
2 1.22335 8.43134 5.78098
2 4.4444 7.01224 8.74447
2 1.95272 4.41327 11.1999
2 1.63276 9.57268 3.73666
1 11.7416 6.02284 8.54519
1 6.20705 9.85184 4.63587
1 3.76786 5.2169 7.58833
1 7.69291 4.90611 3.52867
1 3.40591 7.63999 9.90377
1 8.3376 8.20708 2.63559
1 8.05226 5.89759 6.52763
1 6.244 1.89054 3.71525
1 2.34049 5.56453 4.16987
1 5.48684 4.83527 1.25142
1 11.0576 7.47475 5.57979
1 4.00645 10.0009 11.8706
1 10.3601 3.98041 6.356
1 6.16599 1.79266 12.17
1 3.9776 7.2857 2.19106
1 7.57399 7.04436 11.1183
1 11.3071 9.35202 3.00729
1 2.12536 10.2371 8.01934
1 3.28209 2.40074 4.61574
1 9.63758 4.67546 11.104
1 2.75229 8.75641 4.97917
1 9.70638 9.62827 8.77646
1 10.6947 4.17186 2.84396
1 3.06819 3.08692 11.3628
1 9.70411 1.6005 10.3201
1 9.99934 11.8127 6.22694
1 10.8632 8.34371 11.3394
1 2.60991 2.34072 8.16072
1 1.38079 11.4399 11.8085
1 1.09466 0.936424 3.36694
1 1.75039 5.93755 11.9887
1 6.1109 7.37494 8.3089
96
 Atoms. Timestep: 16000
2 7.78127 6.60634 2.72158
2 1.7555 10.9384 11.9774
2 9.23032 3.21379 5.52907
2 4.69654 2.90048 0.814096
2 7.19574 6.20178 5.01779
2 7.56627 7.10257 12.0477
2 10.807 5.64316 8.7478
2 4.63196 8.03787 2.19785
2 1.11661 7.43053 7.16819
2 2.2663 2.61858 12.455
2 5.46294 6.28173 7.78411
2 5.88988 4.77976 2.37246
2 2.79429 8.33193 1.45514
2 9.39076 5.46845 11.3102
2 8.90196 4.87382 6.6631
2 6.02426 11.2216 2.20845
2 11.8308 6.02166 4.53226
2 3.46577 6.69677 9.88751
2 2.14496 6.12736 2.53447
2 7.13354 2.25352 1.94324
2 2.58405 5.8552 7.79817
2 6.23263 4.37701 5.11677
2 9.67282 7.01583 5.16798
2 6.71998 9.09828 1.29646
2 10.1624 9.00732 9.32893
2 3.82123 10.152 3.44631
2 3.89744 4.26624 8.41417
2 8.6673 4.56984 3.82303
2 3.53425 9.94217 9.32293
2 8.67159 8.86282 1.8345
2 8.02672 6.46697 7.89999
2 4.38865 2.07857 5.23143
2 1.88965 3.75544 5.06541
2 6.74369 4.62158 11.9835
2 11.3375 8.09348 2.69506
2 3.57605 8.51433 11.432
2 1.14221 7.41661 10.1385
2 6.52034 1.39837 4.53361
2 2.63179 8.32566 4.03693
2 4.39271 10.1 0.84142
2 0.988177 0.697525 1.82469
2 11.1692 10.919 4.7251
2 10.6049 3.3904 10.4727
2 10.1929 2.57627 8.43321
2 10.6368 11.8861 8.85663
2 1.03695 2.72451 8.56758
2 3.56719 1.1527 8.03966
2 1.35448 1.2568 4.57543
2 11.2664 4.27376 3.47046
2 10.6347 9.89532 7.03178
2 3.49991 10.6196 6.32793
2 2.92668 2.85828 10.0144
2 2.54469 2.87508 7.00681
2 1.68825 10.4593 7.16977
2 10.3365 9.05768 11.8362
2 11.2814 4.90457 6.78367
2 6.93198 6.30408 10.0452
2 9.9881 1.86587 3.11077
2 11.4198 1.57367 10.9973
2 0.691234 5.2233 11.0698
2 0.835711 8.31604 5.87067
2 5.70288 8.70274 9.40053
2 2.48668 5.28416 12.0549
2 10.697 10.8318 2.48321
1 0.874128 5.87568 7.87634
1 5.18723 9.8846 2.1268
1 4.05689 5.9363 8.39931
1 7.00144 5.27816 3.45606
1 4.11623 8.59948 9.78607
1 7.74454 7.85941 1.61318
1 8.29597 6.42319 6.04953
1 5.79564 2.83114 5.32042
1 1.37572 4.75117 3.85711
1 6.25022 3.37486 1.14796
1 11.2278 7.53822 4.42014
1 2.9969 9.67564 12.1276
1 10.1205 3.96706 6.88018
1 6.8694 1.22264 3.04152
1 3.43744 7.00322 2.71854
1 7.83252 5.76006 11.2798
1 10.2861 9.16731 1.67825
1 3.1248 10.9798 8.05642
1 2.37395 2.22596 5.50235
1 10.6477 4.94464 10.3761
1 3.0873 9.61764 5.07001
1 9.95459 10.4187 8.45306
1 9.81293 3.31118 3.835
1 3.21993 3.65733 11.8631
1 10.922 1.98581 9.53874
1 11.7083 9.83795 5.82468
1 11.0165 8.14515 10.4677
1 3.13098 2.80822 8.4146
1 1.50551 1.38621 12.0392
1 11.2829 0.796014 3.39109
1 2.04491 6.19438 10.695
1 6.65528 7.18661 8.61979
96
 Atoms. Timestep: 18000
2 7.93743 5.60639 3.03568
2 2.7347 0.220264 12.2599
2 10.6612 3.26606 5.78025
2 4.18346 3.41632 12.5154
2 6.8273 5.44163 5.56732
2 7.9008 7.1362 0.17883
2 10.3555 6.07314 9.41088
2 4.09873 7.89006 1.7139
2 9.11427 6.17822 7.84232
2 2.84873 2.44294 11.4253
2 4.11325 6.50048 8.74978
2 6.14843 4.20323 2.36374
2 1.84525 7.69783 1.39437
2 8.54869 4.89367 10.6884
2 8.81325 4.05451 7.39753
2 5.93541 10.7447 1.21553
2 12.1216 6.2675 4.22783
2 2.17476 7.77644 7.44147
2 2.1433 5.83933 2.5921
2 6.2351 2.02789 0.375538
2 0.859036 6.42647 8.62349
2 5.43035 3.45258 4.42351
2 10.8021 6.78273 6.35704
2 6.75695 7.92341 2.19761
2 0.726503 9.01573 10.7347
2 4.96019 9.57758 3.28922
2 1.8209 4.7166 7.98588
2 8.45845 3.26422 4.25932
2 5.08512 11.0351 7.75166
2 9.76233 7.67252 2.03144
2 6.65619 5.46524 8.30642
2 3.17225 2.17025 4.18958
2 0.895973 3.6495 3.86377
2 6.16844 4.78015 12.2876
2 11.62 8.55572 3.4738
2 4.09744 10.3491 10.0831
2 2.03517 10.0408 12.2875
2 6.05399 1.43983 2.86344
2 3.08101 8.81101 3.38292
2 4.17412 9.75477 0.970613
2 1.40875 0.83842 1.53545
2 3.0317 9.74322 5.42516
2 10.7137 3.53278 10.727
2 11.0271 1.83051 8.08738
2 11.1211 11.9586 9.60872
2 1.12937 2.79409 9.04426
2 3.36708 1.70938 7.41637
2 12.5329 1.00267 4.47294
2 10.8904 4.84018 3.4225
2 0.772538 9.32813 8.27105
2 3.89877 11.5367 5.31004
2 3.39627 3.82978 9.54661
2 1.97397 3.10177 6.58393
2 2.4112 10.6102 7.2485
2 11.4553 8.88166 0.919272
2 11.0675 4.31706 7.77058
2 6.36167 6.41974 10.5204
2 10.913 2.46543 3.07401
2 12.1108 1.60533 11.5895
2 11.1595 5.76815 12.0035
2 12.0571 8.4741 6.03388
2 5.70725 8.38848 8.68987
2 2.03726 4.85635 11.5013
2 10.7591 11.1744 2.62823
1 10.8469 6.04612 7.89131
1 5.51933 9.02024 1.91141
1 2.45329 6.28571 7.98081
1 7.02132 4.19685 3.9597
1 5.07199 9.92694 8.89238
1 8.10333 6.98113 2.06317
1 7.65996 5.59151 7.055
1 4.79533 2.0598 3.73981
1 0.7614 5.14269 3.16572
1 5.85969 3.50661 0.892865
1 11.4586 7.60682 4.73876
1 3.44418 10.2755 11.7521
1 10.0208 2.83677 7.176
1 6.26077 0.659736 1.15132
1 2.54819 7.27274 2.54791
1 7.408 6.03947 11.4311
1 10.7711 9.31171 2.43492
1 3.71959 11.6655 7.04039
1 1.72577 2.54783 4.83129
1 10.2576 5.13181 10.7801
1 3.67402 10.3471 4.06408
1 11.7755 10.1553 9.68887
1 10.0856 3.3526 4.18427
1 3.57718 3.98721 11.0738
1 11.6125 2.04262 9.66382
1 1.78051 9.30533 6.88206
1 1.02347 8.49467 12.4354
1 2.43242 3.10277 8.13419
1 1.73651 1.61187 12.3983
1 11.8506 0.835686 2.73067
1 1.09673 6.17864 11.957
1 5.75441 6.97345 9.08715
96
 Atoms. Timestep: 20000
2 7.75674 6.34885 3.33465
2 2.70687 1.14009 12.0355
2 9.79344 2.06821 5.32005
2 3.93888 4.31548 11.5905
2 7.5585 5.32377 6.05338
2 7.38106 6.3892 0.710712
2 11.3922 4.75411 8.93934
2 3.8368 8.14642 2.6788
2 9.84574 5.69147 7.18348
2 1.47393 3.85628 12.1856
2 4.7512 6.46897 7.7598
2 4.56135 4.02195 1.35931
2 2.03177 7.14833 0.841645
2 9.06026 4.67978 11.0154
2 8.52771 3.60084 7.47335
2 5.42225 10.8162 1.16544
2 0.723371 6.93243 3.80245
2 3.14099 7.43071 6.82529
2 1.9184 5.50273 2.46265
2 5.48963 1.74814 12.1589
2 1.51824 5.90241 7.55257
2 5.58105 4.30696 3.78411
2 11.689 6.74333 6.48038
2 5.90656 8.23484 1.77597
2 1.10365 8.57295 11.3875
2 4.96296 10.3564 3.68137
2 3.13099 4.20891 7.7215
2 8.25052 3.70813 3.63881
2 4.81607 11.8212 9.07911
2 8.7367 8.15096 2.49846
2 6.99721 5.88494 8.49095
2 3.74243 2.2929 3.27318
2 2.19756 3.86624 3.93669
2 6.77797 4.23968 11.2393
2 10.566 8.75386 3.94913
2 4.80729 10.4998 11.5029
2 2.32998 10.4644 10.9734
2 5.38424 1.9911 2.12401
2 2.82739 12.0148 4.75055
2 3.36837 9.70623 1.39878
2 0.86869 0.853243 1.02401
2 3.2624 9.72812 5.59926
2 10.7879 2.45075 9.90283
2 10.1975 1.13544 8.23418
2 0.835589 11.0299 9.1339
2 1.28624 2.25562 8.32438
2 3.50557 1.49822 6.88445
2 1.17554 1.7136 3.4985
2 11.2948 3.77391 4.08871
2 1.70508 8.96789 8.29577
2 5.11942 11.2719 6.45875
2 3.09004 5.49241 0.799294
2 2.09738 3.00464 5.75495
2 3.22406 10.3235 7.59553
2 11.3477 8.97261 1.5654
2 10.5512 3.69418 7.24792
2 6.33752 6.38525 10.4885
2 10.997 2.18433 2.68179
2 0.944428 1.67453 10.6805
2 10.9918 4.58027 11.5229
2 0.928719 8.68532 6.18823
2 5.37417 8.98127 9.18027
2 11.4083 5.3655 2.48613
2 10.9994 10.9869 2.98665
1 11.3735 5.21867 7.28521
1 4.75291 9.5915 2.26632
1 3.07048 5.82439 7.49701
1 7.14335 5.05716 4.28414
1 5.53251 10.6433 10.0502
1 7.36619 7.32772 2.08888
1 8.25256 5.35547 7.54662
1 4.72832 3.14218 2.63822
1 0.75039 5.23495 3.63188
1 5.46059 3.65524 12.053
1 11.7323 7.84403 4.91948
1 3.20244 11.1508 12.3856
1 9.56805 2.25217 7.01546
1 5.88404 0.64548 1.27635
1 3.12861 6.87468 2.05068
1 7.60402 5.66426 11.4603
1 10.005 9.29188 2.64492
1 4.07416 11.9746 7.73799
1 2.60193 2.14747 4.3355
1 10.2595 4.06077 9.94801
1 4.11446 10.8421 5.15239
1 1.28738 9.56757 9.92543
1 9.66737 2.94771 3.72303
1 2.32425 5.25572 11.3486
1 11.9065 0.987296 9.14337
1 2.43382 8.93361 6.83862
1 0.384961 7.89376 0.437823
1 2.63962 2.72758 7.41279
1 1.34434 2.03058 12.2482
1 11.6355 0.714533 2.5682
1 10.8779 5.68179 0.718433
1 5.80027 7.23801 8.91405
96
 Atoms. Timestep: 22000
2 7.80123 6.83178 3.29885
2 2.97728 0.664948 11.7488
2 10.2039 3.25958 5.34563
2 4.5522 3.67365 11.6968
2 8.12954 6.18145 5.98574
2 7.35065 7.06823 0.705225
2 10.8767 5.53501 9.88804
2 4.20703 7.98315 1.1995
2 9.40269 6.87274 8.16103
2 2.36308 3.68561 11.4897
2 3.63305 5.57924 9.34104
2 5.17697 4.3853 2.06101
2 1.58516 8.55262 12.4101
2 8.7352 5.05729 10.731
2 8.89057 4.27441 7.52438
2 5.36171 11.2212 2.40754
2 0.885544 6.6147 4.59788
2 3.02412 6.72347 7.59708
2 1.48811 6.38261 1.88029
2 6.15645 2.29103 1.54159
2 0.98815 5.96261 7.95893
2 5.87002 5.28792 4.56312
2 10.3627 6.70867 6.4243
2 6.308 9.16541 2.28413
2 11.4638 8.98127 10.4836
2 4.29215 9.26137 3.26738
2 2.9029 3.78668 7.44786
2 8.26184 4.43263 4.3768
2 5.86844 10.063 7.57935
2 8.59078 9.17558 2.78333
2 6.50024 5.5546 7.7268
2 3.67099 3.74313 4.15877
2 1.64695 4.14556 4.11831
2 6.97401 4.23513 11.8967
2 11.518 9.363 4.32111
2 4.56176 10.4107 9.93391
2 1.94194 10.4427 10.5923
2 5.50925 2.79615 3.59576
2 3.73569 1.71915 3.12962
2 4.29987 10.0359 12.6096
2 0.683496 0.483904 1.22706
2 3.09641 8.30305 5.47134
2 10.3767 2.48009 10.0728
2 10.5152 1.79896 7.54691
2 11.514 11.2797 8.67214
2 1.35002 1.47688 8.28405
2 3.48722 12.1824 7.61673
2 0.93742 2.13337 3.95584
2 10.9643 4.36654 3.14482
2 1.8355 9.1676 8.36577
2 3.82514 10.8652 5.27687
2 3.15565 6.06439 12.0682
2 2.69598 1.86114 5.85974
2 3.60469 9.36158 7.09757
2 11.0532 8.48162 1.81438
2 11.1817 4.29457 8.01122
2 6.48139 6.44173 10.3717
2 10.6096 2.33562 2.64131
2 11.9999 0.790261 10.4732
2 11.3317 3.85214 12.122
2 1.20952 7.82584 6.42296
2 5.16749 7.70294 8.60987
2 1.12587 3.84019 2.06816
2 10.6435 11.1738 2.87557
1 10.8402 6.22368 8.39059
1 4.82277 9.5271 1.70404
1 2.58222 5.2657 8.1043
1 7.41716 5.99196 4.55181
1 5.40047 9.31825 9.14133
1 7.50729 8.10215 2.11381
1 7.98429 6.05128 7.60366
1 5.0875 4.27099 3.78369
1 1.05326 5.16916 3.19049
1 5.80188 3.60371 0.695699
1 11.6177 7.71017 5.35382
1 3.55732 10.5967 11.3021
1 10.063 3.33444 6.96353
1 5.36824 1.22894 2.87236
1 2.49294 7.24257 0.837054
1 7.45315 5.65872 11.709
1 10.3866 9.65751 3.01063
1 4.41475 10.8756 6.72159
1 2.5549 2.7027 4.25909
1 10.2164 4.12339 10.7687
1 3.2544 9.64667 4.3609
1 0.738214 9.91475 9.46906
1 9.56502 3.39271 3.93375
1 3.51359 4.76321 10.8812
1 11.4916 1.47038 9.03256
1 2.71949 8.14609 7.17444
1 11.3399 8.4741 12.125
1 2.75579 2.03329 7.54005
1 1.42092 1.09063 12.0096
1 11.6263 0.919148 2.68248
1 1.04051 3.38027 12.639
1 5.36265 6.0053 9.00597
96
 Atoms. Timestep: 24000
2 7.07099 6.97092 3.69664
2 2.12786 0.551656 11.9272
2 8.8054 3.20496 5.66967