96
 Atoms. Timestep: 0
2 0 7.95642 4.74695
2 4.63304 0 11.358
2 0 4.63304 4.74695
2 7.95642 0 11.358
2 0 4.63304 8.47514
2 7.95642 0 1.8641
2 0 7.95642 8.47514
2 4.63304 0 1.8641
2 10.7421 8.43088 6.61105
2 4.15858 10.7421 0
2 1.84736 4.15858 6.61105
2 8.43088 1.84736 0
2 1.84736 8.43088 6.61105
2 8.43088 10.7421 0
2 10.7421 4.15858 6.61105
2 4.15858 1.84736 0
2 10.5201 6.29473 5.04003
2 6.29473 10.5201 11.6511
2 2.06934 6.29473 5.04003
2 6.29473 2.06934 11.6511
2 2.06934 6.29473 8.18207
2 6.29473 2.06934 1.57102
2 10.5201 6.29473 8.18207
2 6.29473 10.5201 1.57102
2 10.1594 8.65935 9.20274
2 3.93011 10.1594 2.59169
2 2.43004 3.93011 9.20274
2 8.65935 2.43004 2.59169
2 2.43004 8.65935 9.20274
2 8.65935 10.1594 2.59169
2 10.1594 3.93011 9.20274
2 3.93011 2.43004 2.59169
2 2.43004 3.93011 4.01936
2 8.65935 2.43004 10.6304
2 10.1594 8.65935 4.01936
2 3.93011 10.1594 10.6304
2 10.1594 3.93011 4.01936
2 3.93011 2.43004 10.6304
2 2.43004 8.65935 4.01936
2 8.65935 10.1594 10.6304
2 0 10.703 0
2 1.88643 0 6.61105
2 0 1.88643 0
2 10.703 0 6.61105
2 0 0 1.872
2 0 0 8.48305
2 0 0 11.3501
2 0 0 4.73905
2 11.2706 2.31295 2.18973
2 10.2765 11.2706 8.80078
2 1.31887 10.2765 2.18973
2 2.31295 1.31887 8.80078
2 1.31887 2.31295 2.18973
2 2.31295 11.2706 8.80078
2 11.2706 10.2765 2.18973
2 10.2765 1.31887 8.80078
2 1.31887 10.2765 11.0324
2 2.31295 1.31887 4.42131
2 11.2706 2.31295 11.0324
2 10.2765 11.2706 4.42131
2 11.2706 10.2765 11.0324
2 10.2765 1.31887 4.42131
2 1.31887 2.31295 11.0324
2 2.31295 11.2706 4.42131
1 11.0086 7.83654 8.10972
1 4.75292 11.0086 1.49867
1 1.5809 4.75292 8.10972
1 7.83654 1.5809 1.49867
1 1.5809 7.83654 8.10972
1 7.83654 11.0086 1.49867
1 11.0086 4.75292 8.10972
1 4.75292 1.5809 1.49867
1 1.5809 4.75292 5.11238
1 7.83654 1.5809 11.7234
1 11.0086 7.83654 5.11238
1 4.75292 11.0086 11.7234
1 11.0086 4.75292 5.11238
1 4.75292 1.5809 11.7234
1 1.5809 7.83654 5.11238
1 7.83654 11.0086 11.7234
1 10.1088 10.1088 3.30552
1 2.48067 10.1088 9.91657
1 2.48067 2.48067 3.30552
1 10.1088 2.48067 9.91657
1 2.48067 10.1088 3.30552
1 10.1088 10.1088 9.91657
1 10.1088 2.48067 3.30552
1 2.48067 2.48067 9.91657
1 0 1.60471 1.57853
1 10.9848 0 8.18958
1 0 10.9848 1.57853
1 1.60471 0 8.18958
1 0 10.9848 11.6436
1 1.60471 0 5.03252
1 0 1.60471 11.6436
1 10.9848 0 5.03252
96
 Atoms. Timestep: 2000
2 0.377921 7.75435 4.32051
2 4.82267 0.212649 10.7352
2 -0.0773932 3.31064 5.87724
2 7.22185 0.1707 11.6145
2 1.00452 4.3496 8.19259
2 8.33581 0.254481 1.85963
2 12.3327 6.67271 9.07668
2 4.38533 -0.17084 0.362778
2 11.6024 7.96318 6.53077
2 4.2685 11.1571 12.7619
2 1.61914 3.85468 6.92033
2 8.36538 2.36926 13.4798
2 2.0831 7.42737 6.27215
2 8.30126 11.1626 13.3315
2 10.3712 4.12451 7.36275
2 4.31909 2.2271 12.7218
2 11.3714 5.46761 5.21279
2 6.33783 10.5196 11.8381
2 1.62978 5.71311 4.89477
2 6.53194 2.41132 11.1233
2 2.24192 6.49854 8.60287
2 6.08002 1.94338 1.04679
2 10.5939 6.28096 7.95685
2 6.53058 10.8199 1.31945
2 10.4977 8.59356 9.76969
2 3.2412 11.2094 2.23082
2 1.71885 4.25386 10.2006
2 8.85525 2.4636 2.4341
2 2.69697 9.33177 9.11021
2 8.93786 10.8552 2.4808
2 10.4379 3.493 9.31286
2 3.54983 1.98588 2.12764
2 2.52303 3.36271 3.80772
2 8.9706 1.70413 9.82015
2 10.5605 8.44365 4.28715
2 3.60513 11.3923 10.6211
2 10.2415 2.68206 5.60577
2 3.64253 2.32963 10.3894
2 1.8767 9.25693 4.07355
2 9.369 11.3217 10.8581
2 1.22834 9.93725 13.0488
2 1.4531 0.154592 6.66746
2 11.839 2.08581 -0.0203085
2 10.7194 12.368 6.90126
2 11.8836 -0.197311 0.980684
2 -0.168571 12.2748 7.93536
2 12.4221 -0.011139 12.5697
2 12.5665 12.233 5.25986
2 11.4196 2.55653 2.74188
2 11.495 9.62089 7.84192
2 0.851826 11.6122 2.12274
2 1.358 1.61276 9.13314
2 0.614357 1.84017 1.96915
2 2.09358 12.0055 8.95099
2 11.4643 10.1074 2.308
2 11.3596 0.498711 8.52942
2 1.70355 10.9501 11.3101
2 2.05607 1.33842 4.21777
2 11.5678 1.46418 10.7193
2 10.655 10.6338 4.73229
2 12.2507 10.8471 11.2725
2 9.91759 0.604442 4.54315
2 0.955239 1.73744 11.3331
2 1.39867 11.9704 4.05699
1 11.2744 7.67852 8.42153
1 4.54815 11.3013 0.854055
1 0.770355 5.67512 9.29024
1 7.95266 1.70949 1.24416
1 2.44695 8.23228 7.74865
1 7.95197 11.7807 1.36102
1 9.86447 5.11236 8.68781
1 4.34653 1.2711 0.645003
1 1.25067 4.07531 4.90071
1 8.06749 1.77556 11.665
1 11.6907 7.37843 4.97869
1 5.05368 11.5158 11.3443
1 11.3393 3.9525 6.1613
1 4.96337 1.73711 11.2155
1 1.87762 7.66045 4.76564
1 7.88446 11.4377 11.7547
1 10.198 9.94291 3.2021
1 2.41615 10.8053 9.76632
1 1.96148 2.22755 2.78285
1 10.7752 1.81973 9.27217
1 1.95079 10.7137 3.01481
1 10.8454 10.4378 10.3435
1 10.2277 2.23278 4.06009
1 1.9122 2.58785 10.2278
1 12.0828 1.59225 1.47528
1 11.5575 11.3809 8.16842
1 12.3254 11.3675 1.59428
1 1.2858 0.14714 8.10045
1 0.410507 11.5499 12.4578
1 1.16478 0.405551 5.22188
1 12.3557 1.56503 12.098
1 10.745 12.3386 5.13787
96
 Atoms. Timestep: 4000
2 0.717613 7.81933 5.2726
2 4.38487 -0.207864 10.7359
2 12.1309 4.1922 5.01667
2 7.45504 12.1853 11.4658
2 11.8599 4.6173 7.75772
2 9.00496 -0.250894 1.07406
2 12.4063 6.52831 8.46519
2 4.96575 0.129154 1.33912
2 10.7943 7.99649 7.03529
2 1.47158 10.4261 6.11329
2 1.84903 5.76957 4.23781
2 8.59553 1.53551 -0.565323
2 2.57385 7.54727 5.89194
2 7.86336 10.677 -0.051213
2 9.37485 4.16273 7.17275
2 4.54457 2.32554 12.6283
2 11.2258 5.82969 5.90979
2 5.53425 10.7944 12.3982
2 0.696189 6.05102 6.09046
2 6.16631 1.09062 11.4306
2 1.71534 6.53709 8.39299
2 7.02451 1.75407 0.748536
2 9.9265 6.47933 8.65649
2 7.07375 11.1766 2.17733
2 10.9595 8.9141 9.59699
2 4.07556 11.1522 3.26745
2 1.33438 4.07683 9.2165
2 9.24907 2.01071 2.77881
2 2.92608 8.70123 10.464
2 9.54196 10.2769 2.34645
2 9.85959 3.46705 9.7146
2 4.05245 2.63489 1.73729
2 1.86513 3.43164 4.5214
2 8.74809 1.34537 10.6201
2 11.1167 8.77681 4.69708
2 2.93959 11.0863 10.9834
2 10.0839 2.83207 5.34243
2 3.33215 1.75429 9.74481
2 2.1187 9.33964 3.54749
2 8.30216 9.97041 10.951
2 0.11715 11.2684 13.2423
2 1.579 -0.636162 6.61513
2 0.412372 2.14929 13.2903
2 11.4616 -0.17413 6.673
2 0.0104149 0.120232 1.26947
2 12.0246 12.6383 8.82864
2 12.6679 0.120986 12.5319
2 0.356631 12.3227 5.00966
2 12.3837 2.11444 2.66633
2 10.0071 11.6745 9.27224
2 1.79837 10.759 1.45809
2 1.67525 1.20635 8.56642
2 1.49042 2.79553 2.09394
2 1.12545 11.1766 8.42265
2 12.1273 10.6765 2.07674
2 10.0324 1.24055 8.52191
2 0.747023 11.2501 10.8763
2 3.08352 1.13059 4.47787
2 11.5215 1.28311 11.0017
2 10.6481 11.0241 3.93113
2 11.1506 10.8215 11.6648
2 11.8248 1.09795 4.28919
2 0.621291 2.68616 10.953
2 2.2088 11.3915 4.03552
1 11.133 7.55277 8.6999
1 5.37398 11.8736 2.44796
1 0.242235 5.13834 8.4756
1 8.76391 1.59807 1.22988
1 2.82785 7.40536 9.31104
1 8.38297 11.2137 1.34831
1 9.38056 4.53357 8.82133
1 5.28216 2.144 0.937963
1 0.955037 4.54728 5.17557
1 7.73134 0.684159 12.0428
1 11.914 7.68684 5.72055
1 4.20844 11.6446 11.6877
1 10.5467 4.25366 5.93635
1 4.69439 1.56029 10.7644
1 1.87237 9.05537 5.34492
1 7.13105 10.5802 11.9587
1 11.1866 9.66183 3.21022
1 1.93453 10.2878 9.99795
1 2.71532 2.4448 3.03423
1 10.1325 1.76455 9.95819
1 2.76668 10.3318 2.6214
1 10.1148 10.3378 10.4422
1 10.7119 2.30709 3.60049
1 1.90747 2.17117 9.79425
1 0.13808 1.7432 1.26377
1 10.5256 -0.233846 8.05312
1 0.41379 11.3575 1.03396
1 0.717896 12.86 8.12323
1 12.4247 11.6537 11.8506
1 2.03782 0.0703665 4.99261
1 12.594 1.86969 12.1506
1 11.7678 12.3755 4.96754
96
 Atoms. Timestep: 6000
2 -0.136336 8.46023 5.74943
2 4.97333 0.0953285 11.5123
2 0.684165 1.74676 6.05665
2 8.69412 11.8473 11.8843
2 0.689545 4.47735 6.94935
2 8.62524 0.0534888 1.73111
2 12.3235 5.91606 8.81336
2 4.91636 1.10709 1.21661
2 10.7966 7.15006 7.05162
2 2.30073 8.8936 6.84018
2 11.2676 2.73051 6.70602
2 8.66485 0.931266 13.4854
2 1.25189 7.66833 3.63451
2 7.32264 11.0587 13.5285
2 9.61811 4.00697 5.67486
2 5.15349 2.53733 12.9704
2 10.8831 6.40098 5.07056
2 6.16544 10.2683 11.6215
2 12.204 4.54903 4.9619
2 6.82979 0.809382 11.8103
2 2.42855 6.4451 8.30713
2 6.70122 2.10213 1.71279
2 9.60648 5.43759 7.76858
2 4.87739 11.2891 0.0586807
2 10.914 7.89913 9.7443
2 4.19736 11.6382 2.74846
2 1.95035 5.06456 9.62822
2 9.73149 2.43094 1.57366
2 2.15727 9.06454 9.61442
2 8.64475 10.278 2.31596
2 9.49655 2.94136 8.78474
2 4.62937 3.53974 2.8715
2 1.63133 3.82888 4.70609
2 8.89333 1.35581 10.4485
2 10.5579 9.04128 4.86629
2 3.18332 10.7722 11.8403
2 10.5648 3.90279 3.24643
2 3.9073 3.0569 11.3086
2 2.08079 10.1865 4.38483
2 9.29731 9.52294 11.576
2 12.1518 11.9282 0.32685
2 2.13322 12.3487 7.09149
2 0.637666 1.47194 12.7701
2 11.0425 12.6636 6.14439
2 0.574582 0.357702 1.94542
2 0.109868 12.2206 7.82777
2 12.4236 12.6343 11.7184
2 0.459977 12.4656 4.86352
2 12.573 2.49887 1.62234
2 11.046 10.8199 8.98183
2 0.886952 11.4348 2.84829
2 0.589196 0.647678 9.89041
2 2.09211 2.69093 1.8318
2 2.26583 11.5297 9.71532
2 10.9194 11.1621 2.60569
2 10.4079 0.400315 8.38543
2 1.07191 10.9026 12.0379
2 2.52772 1.58678 4.39898
2 11.1048 2.21678 10.5308
2 10.2884 11.4432 4.56118
2 11.2504 10.0736 11.7253
2 10.5934 1.24453 4.02973
2 1.0129 2.92959 10.9967
2 2.49961 12.2216 4.1453
1 10.6718 6.7577 8.66897
1 5.04578 12.2397 1.37955
1 0.870668 5.36764 8.32276
1 8.21485 1.61828 1.35048
1 2.56453 8.01752 8.26129
1 8.26331 11.51 1.2305
1 9.88223 3.93933 7.37443
1 5.20476 2.85681 1.19851
1 0.0831904 3.12695 5.87285
1 8.62567 0.712022 11.8461
1 11.243 7.95917 5.84386
1 4.86271 11.3035 11.958
1 10.7643 4.8388 4.53393
1 5.22987 1.82608 11.4718
1 1.5477 8.7605 5.18219
1 7.82604 10.2679 11.8496
1 9.70642 10.2524 3.53141
1 2.00753 10.5905 10.7572
1 2.74566 3.1978 3.51496
1 10.1262 1.54195 9.52336
1 2.55421 11.3367 2.91908
1 10.7392 9.50827 10.3177
1 10.8807 2.27848 2.6893
1 2.37492 3.65416 10.6094
1 0.866542 1.69713 1.11297
1 11.1787 11.9614 7.854
1 12.3844 11.8459 2.03534
1 1.54504 12.7601 8.84416
1 12.363 11.1066 12.4944
1 1.48052 0.456897 5.61728
1 -0.0174142 1.3851 11.2965
1 11.6012 12.6487 4.56997
96
 Atoms. Timestep: 8000
2 12.2748 8.56131 5.71188
2 4.42908 12.3065 11.8156
2 1.28421 2.97022 5.70563
2 7.26764 12.1803 11.2012
2 2.45791 4.99376 7.46041
2 8.82931 -0.133884 0.968076
2 3.14397 5.19694 10.1038
2 4.90266 0.257805 2.43154
2 9.75587 7.79811 5.8372
2 0.0553886 9.4564 7.88994
2 12.5175 4.69403 8.84993
2 8.00613 1.719 12.9426
2 11.6969 11.1018 2.07226
2 9.05668 11.1438 11.7157
2 10.9437 3.95147 6.53485
2 4.49624 1.3366 0.312773
2 10.6256 6.07475 4.82598
2 6.92537 9.99793 11.7133
2 0.155693 4.90105 6.07697
2 6.05817 1.19007 11.7366
2 0.866836 6.61411 8.91255
2 6.71177 1.80245 2.17791
2 9.84512 5.64071 7.80896
2 4.72188 10.7045 0.313436
2 9.63479 8.42304 8.1194
2 2.97511 11.9257 2.36595
2 1.44777 3.55233 10.2183
2 9.34428 2.29716 2.21634
2 2.10522 9.07894 8.95939
2 9.36522 10.5005 1.54179
2 10.6521 3.31076 9.16398
2 4.34401 2.79385 2.59005
2 2.53103 4.60807 4.33792
2 8.74403 1.22408 10.436
2 10.7645 8.81557 3.70993
2 4.30133 9.86163 10.855
2 11.2665 3.06792 4.47443
2 3.42661 1.81297 10.9799
2 0.990025 10.624 4.96787
2 8.76154 10.3021 9.4399
2 10.7945 11.0998 12.8526
2 2.34379 1.05255 6.86932
2 0.245999 2.00454 0.417237
2 11.4086 0.416838 7.07599
2 0.507112 12.793 -0.169331
2 0.578932 12.2583 8.41603
2 11.692 12.5401 11.5738
2 0.412754 0.100999 5.50507
2 11.9898 2.13954 2.65967
2 10.6005 11.1848 8.82467
2 1.4644 10.5581 2.13652
2 1.83849 1.55646 9.0967
2 1.6515 3.44718 1.56374
2 3.23745 11.6776 8.88077
2 9.60912 11.5565 3.73113
2 10.8053 0.863006 9.60093
2 0.594111 10.7084 12.6793
2 2.4739 1.46713 3.68909
2 10.9957 2.02948 12.0046
2 11.7403 10.9647 5.95765
2 11.6631 10.1552 10.3795
2 11.0241 0.475737 4.21103
2 0.611984 0.974936 11.3741
2 3.61705 10.7525 4.6915
1 9.41525 6.99589 7.25073
1 4.74796 11.5262 1.67807
1 1.76876 4.97759 9.13176
1 8.33047 1.2883 1.25645
1 0.934844 8.00458 8.20222
1 9.12344 11.4644 -0.180297
1 11.0635 4.61945 8.04542
1 5.18006 1.8281 1.67788
1 1.67587 4.57634 5.81411
1 7.7245 0.868783 11.5665
1 11.2249 7.70062 4.93451
1 5.10012 10.77 12.1103
1 11.3133 4.58282 5.15253
1 4.44546 1.08158 11.9557
1 0.102103 9.83296 6.31567
1 7.8671 10.7517 10.5273
1 10.4109 10.3928 2.99829
1 3.34646 10.1737 9.30215
1 2.75581 2.87532 3.11209
1 10.1958 2.31459 10.6828
1 2.30023 10.8848 3.73359
1 10.2432 9.52162 9.21742
1 10.4842 1.88128 3.26131
1 1.84181 2.08434 10.5145
1 0.123445 3.28607 1.47298
1 11.4255 -0.230058 8.5991
1 0.481675 11.2383 1.21072
1 2.03031 -0.0230038 8.33036
1 11.9878 10.7679 11.8893
1 1.93462 1.20617 5.42514
1 12.229 0.991142 12.5636
1 11.4912 -0.297721 5.48349
96
 Atoms. Timestep: 10000
2 11.4082 9.40224 6.1029
2 4.91269 0.156941 10.9813
2 0.667827 2.37356 4.73814
2 8.18114 0.00125979 11.3716
2 1.0906 4.12075 7.26863
2 8.94474 12.1261 1.09566
2 2.40701 5.83775 9.7793
2 5.05913 12.3482 1.82494
2 9.61453 7.90327 6.6178
2 1.05801 9.3363 7.70015
2 0.00306011 5.20967 8.71898
2 8.15328 1.51281 12.8122
2 11.66 10.6054 2.07254
2 8.05701 10.1011 13.0499
2 11.5287 4.50897 6.63344
2 5.33244 0.950845 13.3495
2 11.4324 6.77551 5.18319
2 5.91133 11.0383 12.0551
2 0.577911 5.28193 5.0137
2 6.56002 2.05136 11.1806
2 1.30411 6.5315 8.01147
2 6.99892 1.64012 1.55086
2 10.8549 6.37515 8.9893
2 3.73316 11.0921 13.113
2 9.7356 9.4036 8.96878
2 3.45255 10.3643 2.56914
2 1.92549 3.20197 9.63238
2 9.4437 1.76687 2.06552
2 1.49052 8.88898 9.74095
2 9.54226 9.74644 1.84403
2 11.3212 3.32358 9.38958
2 4.41562 2.16791 2.67726
2 2.29393 3.19978 3.89434
2 9.45915 2.41024 10.7565
2 10.6313 9.02999 4.0772
2 3.58492 10.7273 10.5397
2 10.9728 3.65878 4.29009
2 3.79413 2.54999 11.0379
2 1.14506 10.2442 5.21574
2 8.79121 10.886 10.7008
2 10.5262 9.67882 13.2641
2 1.50855 12.6905 6.59407
2 -0.132876 4.34171 2.82019
2 11.4286 0.654109 6.22853
2 -0.0961377 -0.131242 0.16471
2 0.154755 -0.0445926 9.21635
2 0.420863 9.6898 11.6885
2 0.450778 -0.146993 4.30816
2 11.5397 2.3797 1.75871
2 11.4201 11.5351 7.78127
2 0.689678 11.4109 2.57082
2 2.46965 0.498542 9.64792
2 1.27325 2.25092 1.83198
2 1.53564 11.0326 9.07153
2 10.5915 11.9981 3.5484
2 10.5195 1.13663 9.06082
2 12.5446 10.7307 -0.000757833
2 2.71551 1.03317 3.86821
2 12.2034 1.27463 11.4022
2 12.4156 11.7605 5.78198
2 11.4786 10.6063 10.7739
2 10.4231 1.08418 4.06023
2 1.76289 1.48236 11.8318
2 2.45042 9.01944 4.33853
1 10.0148 7.75313 8.23293
1 4.36566 10.8675 1.06148
1 1.57132 4.91705 8.73668
1 8.46966 0.669587 0.68158
1 0.703952 7.95983 8.57925
1 9.15029 10.429 0.494691
1 11.4967 4.66775 8.20301
1 5.35331 1.43379 1.59517
1 1.3865 3.88296 5.47442
1 7.97131 1.59807 11.0513
1 10.526 8.30288 5.42633
1 4.42746 11.5937 11.67
1 11.9283 5.15906 5.01951
1 5.09879 1.50884 11.7538
1 -0.0969447 10.372 6.5842
1 7.60265 11.3291 11.9084
1 10.4803 10.3129 3.0338
1 1.8216 10.2382 10.5113
1 2.76168 2.05451 2.66382
1 10.901 1.99306 10.5251
1 1.87559 10.3532 3.45399
1 10.215 11.028 9.53159
1 10.7329 2.36573 3.02726
1 2.65014 1.87695 10.2356
1 -0.0952863 2.90973 1.50365
1 11.5146 0.308572 8.01505
1 -0.0959169 11.7698 1.24003
1 1.53094 12.6461 8.26036
1 12.0348 9.98057 12.0686
1 1.47613 0.745748 5.14951
1 0.439937 0.513021 12.4399
1 11.522 -0.137735 4.5934
96
 Atoms. Timestep: 12000
2 10.9824 9.19547 4.63142
2 4.44876 11.9896 11.0125
2 2.45481 2.28255 5.44524
2 8.55882 12.2865 12.0109
2 2.61088 4.70031 6.95386
2 8.36772 10.0282 3.01637
2 -0.00478678 5.67133 8.11525
2 4.62442 12.1518 1.72797
2 9.91788 7.45016 5.73918
2 0.801422 8.50223 6.57439
2 11.726 3.75506 10.0711
2 8.79086 0.180651 1.34766
2 11.1909 11.9625 0.862277
2 9.71775 10.3451 11.7763
2 10.7315 4.56376 6.77371
2 4.05256 1.81287 12.559
2 11.1862 5.79439 4.40988
2 6.76017 10.4365 10.5547
2 0.976376 4.47216 5.20913
2 6.15019 0.703971 12.07
2 1.84785 7.1477 8.55746
2 6.19423 1.83544 0.992965
2 9.83095 5.82169 8.14839
2 5.3095 9.9724 12.9768
2 9.82611 8.39367 8.03745
2 3.36532 9.94749 2.42996
2 2.10644 5.06877 9.98912
2 9.60038 0.232504 4.03479
2 2.07018 9.50799 9.11698
2 9.2721 9.7973 0.987504
2 9.84961 3.18019 9.15767
2 3.55405 3.2802 1.1683
2 3.52819 4.40802 4.18144
2 8.2953 2.14021 11.5773
2 9.44916 7.68216 3.07838
2 4.12517 9.64111 11.0026
2 11.3833 2.94683 4.57302
2 4.48705 2.32114 9.76135
2 1.04158 9.44214 4.67157
2 9.01441 10.6652 9.25139
2 12.0257 9.31155 0.688554
2 2.9469 0.178107 7.56706
2 11.4904 7.19029 2.15937
2 10.7883 12.27 7.83065
2 0.225724 1.87899 0.59199
2 0.544956 11.9807 9.25958
2 1.7967 9.48212 12.0376
2 0.97215 0.707228 5.91198
2 0.00851333 4.65789 0.56776
2 11.2423 10.2814 7.28771
2 0.673911 11.4259 2.73377
2 1.74095 2.24743 9.33839
2 2.01065 5.23687 1.33059
2 2.57263 11.7646 10.2733
2 6.81002 9.24774 1.72657
2 10.2119 0.454392 10.3259
2 1.35557 11.4749 0.397784
2 1.60694 1.33337 2.78335
2 10.5595 2.71444 12.0004
2 11.6767 11.4172 5.55203
2 11.6354 8.86162 8.79306
2 11.5614 0.924013 2.78643
2 0.714387 4.27686 11.6015
2 2.85781 11.3213 4.81828
1 9.34584 7.01326 7.25303
1 4.60077 10.4988 1.51212
1 1.94749 5.45351 8.44727
1 8.65084 11.6227 2.61743
1 0.919035 8.51503 8.26754
1 10.5603 10.2595 0.344826
1 10.8792 4.61626 8.40244
1 4.37537 1.47203 1.20783
1 2.52784 3.89017 5.52223
1 7.71309 1.28614 12.9932
1 11.1214 7.37386 4.02764
1 5.34849 10.5072 11.3773
1 11.5313 4.42533 5.10137
1 4.66159 1.35556 11.1417
1 12.018 9.66397 5.82406
1 8.40122 11.0063 10.966
1 8.4787 8.56735 2.29927
1 2.61797 10.1837 10.6161
1 2.9962 4.27389 2.45164
1 9.55707 2.18267 10.4061
1 2.13234 10.3559 3.58113
1 10.0977 9.81619 8.58834
1 10.4141 1.65278 3.98873
1 1.30383 3.43068 10.2556
1 0.541551 6.2102 1.29322
1 11.2031 11.6685 9.54673
1 0.565897 0.363475 1.48948
1 2.09755 0.443488 9.1105
1 1.29497 9.73684 0.678414
1 2.56985 0.498435 5.95881
1 11.8882 3.23224 12.7995
1 11.5566 0.460861 6.39738
96
 Atoms. Timestep: 14000
2 0.0537232 7.658 4.40139
2 5.13648 11.9503 10.8528
2 2.18307 1.68936 5.5873
2 6.81503 0.396538 1.32353
2 2.44029 4.11778 6.37389
2 8.74647 11.43 6.41908
2 0.148493 4.62003 7.40723
2 3.71656 0.846619 12.9062
2 11.453 6.69028 11.9271
2 1.87428 9.18775 5.86387
2 12.1437 3.23386 9.406
2 6.94904 0.194048 3.93969
2 12.1709 11.3813 1.18382
2 9.45874 11.7552 0.870032
2 10.7759 4.0648 6.34765
2 4.8587 2.32346 11.9652
2 11.2265 5.74602 3.74534
2 7.01549 10.804 12.507
2 0.629465 4.11744 5.43332
2 7.41113 1.65367 9.84271
2 1.99062 7.04643 7.08078
2 4.6454 1.82037 1.8093
2 10.5235 5.39704 9.19888
2 5.01935 10.9836 12.8389
2 11.0775 7.69608 9.2246
2 3.98048 11.8448 1.9657
2 1.86109 3.77326 8.64985
2 9.66541 0.970761 5.22721
2 2.80784 9.14691 8.13404
2 10.0396 9.4641 1.87407
2 9.44454 2.93725 8.40205
2 3.12174 3.29911 1.76096
2 1.6691 3.30167 3.47922
2 6.10782 2.61777 2.99381
2 9.73921 8.15668 3.93732
2 4.49723 10.0779 9.74135
2 10.3584 2.57809 4.0865
2 4.8606 1.52352 9.51658
2 2.13715 10.1569 3.62574
2 10.7622 10.2347 9.18581
2 11.9813 9.92469 12.4816
2 1.57039 0.751798 7.86967
2 10.8499 7.15426 2.07447
2 11.9609 11.8794 7.4926
2 11.5434 2.04063 13.0419
2 0.53977 11.5339 10.1681
2 2.22806 9.457 10.8319
2 0.186485 12.4129 5.35175
2 10.6753 4.17839 0.328087
2 10.3876 10.3696 6.96353
2 1.33275 0.245027 2.13062
2 2.18232 2.09814 10.4124
2 1.11035 5.49221 1.57927
2 2.71393 11.4864 9.5006
2 8.20887 10.6633 3.98955
2 9.87826 0.413042 9.25985
2 2.15951 10.9123 12.3612
2 1.77073 1.68412 0.308748
2 9.56544 2.71542 10.8551
2 12.2269 9.75767 4.94798
2 12.2453 9.02772 7.52689
2 11.5993 1.10157 2.43009
2 12.1658 4.16729 11.3902
2 2.75592 11.9467 4.91895
1 11.1592 6.5359 10.4436
1 3.43174 11.6166 0.378097
1 2.21899 5.34672 7.52853
1 8.42077 12.2366 4.84049
1 1.5431 8.51171 7.34288
1 10.8521 10.4025 0.697495
1 10.9756 3.92727 7.97056
1 3.66837 2.4867 0.210556
1 1.97277 3.28472 5.08866
1 6.02426 0.919974 2.95462
1 10.9764 7.27564 3.69835
1 5.68095 10.311 11.2943
1 11.2725 4.07026 4.75526
1 6.03956 1.28554 10.8306
1 1.31859 9.00705 4.40191
1 8.10756 12.1569 0.151286
1 9.15408 9.54339 3.42827
1 3.17464 9.82993 9.53572
1 1.80416 4.11635 2.22489
1 9.10877 1.76724 9.81394
1 2.7559 11.688 3.09774
1 10.6775 9.09195 8.34514
1 10.998 0.91151 4.09682
1 1.22797 3.6263 10.2678
1 11.7979 5.88256 0.884208
1 11.3807 11.8 9.01125
1 0.410805 0.937089 0.928321
1 1.96678 0.555152 9.58505
1 0.974401 10.4672 11.4641
1 1.72331 0.408636 6.22692
1 10.9842 3.07773 11.9539
1 11.7686 10.9521 6.20664
96
 Atoms. Timestep: 16000
2 1.18171 7.46473 4.09909
2 5.4254 0.948333 10.8137
2 1.00933 2.21973 4.08579
2 7.80256 0.131231 0.838841
2 2.52458 3.95714 5.83949
2 6.52614 11.5413 4.66036
2 12.4851 4.6253 5.99359
2 3.67403 1.89807 0.620528
2 11.2645 6.3305 12.4453
2 1.70459 8.8624 6.62838
2 12.0496 3.45587 8.77858
2 7.60838 0.320942 2.99216
2 11.025 11.4101 1.66168
2 9.36219 11.191 12.3658
2 10.2445 4.76172 6.84191
2 5.50997 2.96194 12.3747
2 10.7881 6.04944 4.4321
2 6.75825 11.1365 11.3858
2 1.51221 6.10724 3.68905
2 8.08816 1.7856 11.3542
2 1.78235 6.64644 7.71856
2 6.42602 2.10141 1.40336
2 10.1642 4.61463 9.91428
2 4.50317 12.1603 12.1513
2 9.986 7.2315 9.96333
2 3.34266 11.0632 1.53328
2 1.46246 3.81832 8.1672
2 8.64587 0.325025 4.98917
2 1.90288 8.82008 9.04765
2 9.87583 9.80541 1.14373
2 9.58635 2.38446 9.12866
2 3.88834 4.60655 1.50106
2 2.82072 4.05704 3.35881
2 8.92061 1.74913 3.22077
2 10.6845 8.57167 3.08281
2 3.96431 10.8614 10.1638
2 10.3278 3.22548 4.89658
2 5.75225 2.41684 9.45408
2 3.18205 10.0227 4.19852
2 11.1263 9.77379 9.46009
2 11.9541 11.3863 12.2941
2 1.36983 0.216269 6.45185
2 11.7056 5.97755 2.11136
2 11.8408 11.4883 7.63353
2 11.2674 1.4678 2.11172
2 0.842352 1.3619 10.7471
2 1.33629 11.3802 10.7973
2 11.2271 1.19117 5.05419
2 11.4518 3.87747 0.438709
2 10.6893 8.49662 7.45802
2 1.42344 11.8709 2.4323
2 0.80562 0.941658 8.73745
2 1.31124 5.76123 1.09602
2 2.04358 11.1561 8.41977
2 8.8616 9.83785 3.6752
2 9.93007 12.3987 9.85847
2 2.08579 0.349733 12.9848
2 6.10417 4.40609 1.02472
2 9.02061 1.78064 0.703409
2 0.100401 8.91732 5.10533
2 12.1457 7.48154 8.3723
2 12.1904 0.15411 3.67259
2 12.1639 1.57644 12.6452
2 2.27099 0.355615 4.37478
1 10.2896 5.89186 10.9892
1 3.63465 0.224926 0.316556
1 1.55542 5.07859 6.87069
1 8.21117 11.4491 3.97959
1 1.17459 8.12701 7.96214
1 10.7941 10.5641 13.0314
1 10.5476 3.77688 8.63182
1 4.82022 3.07591 0.987055
1 2.28652 3.19886 4.49525
1 7.82409 1.49243 1.74978
1 11.6774 7.19671 3.35085
1 5.29458 11.8038 10.6701
1 10.8677 4.69893 5.28393
1 6.43506 2.15001 11.1425
1 1.73417 9.1138 4.96539
1 7.89142 11.4787 12.6261
1 9.42969 8.95243 2.32292
1 2.6683 10.2759 9.66375
1 2.41277 5.38086 2.35196
1 9.63488 1.39115 10.644
1 2.84202 11.4451 3.31638
1 10.7538 8.00272 9.0511
1 9.78986 1.53465 4.67226
1 0.830895 2.58913 9.36512
1 12.1975 5.36446 0.538275
1 10.6015 11.2181 8.7759
1 12.2534 12.4888 2.11519
1 0.984507 11.9927 7.92435
1 0.801421 0.161415 11.9077
1 0.654838 0.798828 5.00769
1 10.8489 2.3974 0.772931
1 11.3815 8.29585 6.11801
96
 Atoms. Timestep: 18000
2 12.2481 7.26162 4.46538
2 6.16232 0.577723 10.1537
2 1.25723 2.4363 4.43429
2 10.5489 0.46559 12.3928
2 3.14718 5.0171 5.87785
2 5.98311 10.8834 1.54818
2 10.5836 4.01024 7.25759
2 3.89866 1.07514 0.848314
2 11.0826 7.1504 11.9185
2 0.637088 7.21404 7.14218
2 0.479765 4.08042 9.54403
2 8.29148 11.9204 0.699038
2 11.6623 10.5837 0.982101
2 8.77486 11.438 10.508
2 8.27668 3.26132 6.71526
2 5.15911 2.75189 11.8894
2 9.9049 5.19382 4.80639
2 6.58828 10.5628 11.7489
2 1.27013 4.23611 2.48356
2 6.57286 3.29212 9.25635
2 2.59821 6.97195 7.66497
2 9.16305 2.62436 11.9942
2 10.4914 6.49536 9.05949
2 4.57374 10.6103 11.9872
2 8.9121 9.0098 11.176
2 4.05975 10.5698 3.20218
2 2.91477 4.30691 8.59896
2 7.66752 0.778779 3.81296
2 2.13763 8.73217 9.85006
2 9.5578 9.35464 1.58512
2 9.09033 4.54933 8.90484
2 4.22134 3.81166 1.69686
2 2.70967 4.75444 3.83354
2 10.2571 0.886244 2.45409
2 10.4078 7.52937 3.27399
2 4.34856 10.3553 9.64838
2 9.5769 2.25477 5.00984
2 4.08963 3.06795 10.1025
2 2.40151 9.01258 5.6427
2 9.56743 10.2919 8.90103
2 11.0098 9.76754 10.9652
2 0.432171 1.52903 7.2632
2 11.4806 5.82626 2.27029
2 10.7228 0.867639 9.02174
2 0.592584 0.584011 2.85241
2 1.42648 2.19594 10.6426
2 2.27334 11.2993 11.3097
2 11.1399 12.1702 4.69002
2 11.7219 5.23172 12.077
2 9.45978 9.16495 4.82333
2 1.95853 10.9002 3.31705
2 1.79443 1.89936 8.71741
2 2.17446 6.13106 1.44629
2 1.63881 11.1796 8.60674
2 9.39454 10.9146 3.49107
2 8.02164 1.78082 8.79769
2 2.51187 11.0023 1.44382
2 5.96633 1.29189 2.34423
2 11.3124 2.33442 1.54204
2 11.3914 9.35641 6.17554
2 11.5462 8.60284 8.46182
2 11.4072 10.2601 3.06068
2 1.56995 1.63523 1.33912
2 2.22566 11.8442 5.27908
1 10.0336 7.47091 10.5271
1 4.11013 11.3761 1.48461
1 2.85024 5.41387 7.35489
1 7.15298 11.7074 1.98036
1 1.54244 7.55083 8.73076
1 10.1753 10.2504 12.7566
1 10.7739 4.80873 8.78691
1 5.22489 2.31076 1.25387
1 2.35443 3.60181 5.00374
1 9.80852 1.78598 1.12368
1 11.1312 6.18768 3.73091
1 5.50971 10.8864 10.6273
1 9.68061 3.71472 5.89812
1 5.68292 2.29422 10.2217
1 0.906159 8.11253 5.87018
1 8.28952 10.3163 11.7425
1 9.95673 9.42996 3.14009
1 2.67475 10.4183 9.81783
1 2.66254 4.63918 2.10725
1 7.83395 3.45585 8.27582
1 2.87193 10.3587 4.61694
1 10.8926 9.88791 9.37729
1 9.34921 1.03936 3.98323
1 2.26212 3.37858 9.70826
1 12.1163 6.32345 0.874944
1 9.08706 12.0228 8.88256
1 0.920298 10.8374 2.17948
1 0.725495 0.789352 8.65684
1 1.48725 0.849944 11.9444
1 1.02278 1.1758 5.51214
1 0.802082 2.32475 2.6793
1 9.904 9.96621 6.16613
96
 Atoms. Timestep: 20000
2 0.549588 5.64695 4.80708
2 5.16774 0.59951 10.5655
2 2.03945 3.00191 5.16795
2 9.83031 11.6803 12.6357
2 3.10125 5.54083 5.78498
2 5.49655 0.83689 2.63551
2 10.867 4.59168 7.66399
2 4.04874 0.903545 1.27959
2 9.78026 5.99623 12.7095
2 12.3391 8.70118 7.44183
2 0.791098 4.23537 9.8047
2 7.84483 1.78648 0.891158
2 10.3027 0.990068 10.8822
2 9.82478 10.1557 10.3954
2 8.40291 3.4835 7.70364
2 4.9518 3.01055 11.2099
2 10.0039 5.73132 5.54201
2 6.92656 10.2427 10.2669
2 0.775512 3.11072 1.59245
2 6.87729 2.19142 9.65869
2 2.32278 6.42534 8.00433
2 8.20477 2.19753 11.1368
2 9.97932 5.41683 9.9902
2 5.41759 10.9821 0.708778
2 8.77431 7.79805 10.4688
2 4.49372 10.8851 4.19613
2 2.52658 4.13922 8.5349
2 7.31423 2.05891 3.04816
2 2.60991 9.40851 8.81676
2 10.3652 9.43401 1.40761
2 10.0435 2.95299 9.44585
2 3.21957 4.73861 12.8609
2 2.12492 4.79839 3.2834
2 8.95832 3.72425 2.54463
2 10.7304 7.68952 3.42672
2 4.22056 9.63652 11.2726
2 9.20151 3.70489 5.01593
2 3.4919 1.96186 9.34607
2 1.36879 10.1153 5.80159
2 11.465 9.86694 11.635
2 11.2265 7.21091 11.3398
2 0.279668 10.7547 7.74233
2 10.7563 5.13473 2.94683
2 11.3344 0.57801 8.48268
2 11.2688 0.443949 2.91644
2 2.80869 2.79603 11.0107
2 2.81304 11.8168 11.3394
2 1.85236 1.17881 2.77757
2 9.63983 3.29254 0.491504
2 9.51065 10.3096 3.49727
2 2.76655 9.62345 3.39332
2 1.2522 1.66583 8.64195
2 12.0724 5.08515 1.03166
2 1.81657 11.1737 9.76336
2 9.17464 1.07376 3.88801
2 8.69235 0.864134 8.94076
2 3.673 10.2252 1.7037
2 4.82924 3.07051 1.20192
2 10.6069 1.45159 1.10995
2 10.6542 10.6706 5.78709
2 1.3579 7.80164 10.1616
2 0.639931 10.4147 0.932351
2 1.60295 1.23 0.522063
2 2.3488 11.8348 4.38423
1 9.7533 6.57887 11.0213
1 4.66628 11.3443 2.32842
1 3.25323 5.40683 7.32921
1 6.48125 2.04954 1.75646
1 1.7746 8.17841 8.33871
1 11.029 10.6149 0.458516
1 10.9432 4.32132 9.46955
1 4.59572 4.18305 12.7033
1 1.80914 4.62188 5.06103
1 9.54738 1.5983 12.3919
1 11.312 6.26327 4.04299
1 5.64218 10.712 11.3538
1 9.61407 4.22242 6.48923
1 5.11811 2.00717 9.79647
1 11.9584 10.0789 6.49595
1 8.22336 9.10638 10.2202
1 9.75955 8.72205 2.72755
1 2.70186 10.2489 10.6875
1 1.89186 4.63913 1.50788
1 8.3488 2.44841 9.18033
1 2.90763 10.3967 4.9775
1 12.3308 8.40693 11.3693
1 8.87906 2.4625 3.73639
1 2.11989 2.92723 9.55667
1 10.1847 4.5906 1.26003
1 10.1394 11.9881 9.62812
1 1.83919 9.71935 2.10602
1 1.23227 11.7565 8.42768
1 3.03206 1.44763 12.357
1 1.66531 1.42432 4.38851
1 12.0669 1.26452 1.64476
1 10.2265 11.8558 4.16249
96
 Atoms. Timestep: 22000
2 12.1584 5.59196 4.94095
2 4.9919 0.234748 10.66
2 1.6333 3.19537 5.23073
2 9.81552 0.148571 1.46418
2 2.58754 5.19136 6.5781
2 6.3223 0.349329 1.87163
2 9.97865 3.65762 7.966
2 3.60198 0.925554 0.36954
2 9.77965 5.70128 0.103805
2 1.35076 9.03611 7.25445
2 12.2705 3.60711 9.09915
2 8.31547 1.8748 12.9607
2 9.74169 0.877701 11.2957
2 9.57775 9.93126 10.2176
2 8.62793 2.47794 6.88288
2 5.25236 3.12265 11.6656
2 9.63454 4.98755 4.92981
2 6.88385 10.1234 10.5427
2 1.8431 3.22298 2.88267
2 6.41142 2.35882 9.30114
2 2.08153 6.8524 9.06535
2 8.06152 4.06939 8.31063
2 10.0885 5.5902 10.1182
2 5.84887 11.7437 12.4868
2 8.83883 7.98772 12.0743
2 4.33689 12.0231 2.78314
2 2.62166 4.23262 9.14989
2 8.7065 1.77268 2.83347
2 1.38075 9.29579 10.022
2 8.23636 9.95829 2.61957
2 9.624 2.91629 9.75587
2 3.87009 4.37882 1.23409
2 2.55197 5.23135 3.88569
2 10.6105 3.38316 2.63877
2 9.77606 7.26426 3.60607
2 4.05438 10.3785 10.7743
2 9.46701 2.88631 4.89253
2 3.56682 2.50959 9.371
2 3.2896 11.0541 5.46167
2 8.15248 10.3978 12.6767
2 9.17835 7.47652 10.0468
2 1.10179 11.1608 7.70825
2 10.4976 5.39658 2.61971
2 11.0464 0.170756 8.98683
2 11.1487 11.2633 2.73154
2 1.86456 1.95693 11.1724
2 2.30991 11.0341 11.9702
2 11.8358 1.81857 3.52442
2 10.7795 3.05454 12.9314
2 10.691 9.75699 4.60956
2 3.58659 8.4194 0.880211
2 1.35178 1.58697 8.49805
2 0.701724 4.6213 1.52509
2 1.82126 11.8049 9.5099
2 10.4915 0.411686 4.49811
2 8.91066 0.83173 8.82807
2 3.77784 10.854 1.1402
2 6.45679 3.15645 1.08153
2 11.2823 0.10494 12.7882
2 0.838969 11.22 5.31533
2 11.3808 7.89652 9.19722
2 1.37137 10.1102 0.909362
2 1.27118 0.377185 0.743737
2 2.81585 0.971349 4.62527
1 9.51076 6.4718 11.5308
1 4.80227 12.2094 1.12374
1 2.83822 5.68534 8.19371
1 7.39135 1.59053 1.92827
1 0.970281 8.14078 8.95584
1 8.56199 11.2092 1.50095
1 10.7494 4.22325 9.35296
1 5.13285 3.58658 0.472665
1 1.6291 4.79466 5.26265
1 10.2816 1.3553 13.005
1 10.605 5.94298 4.09327
1 5.57748 10.9291 10.9346
1 9.47375 3.85244 6.3289
1 5.07817 1.84903 10.1186
1 1.90192 10.4428 6.54618
1 8.20622 9.56061 11.3202
1 9.34676 9.14464 4.07692
1 2.42934 10.5177 10.3197
1 2.45403 4.77863 2.3111
1 8.16628 2.28141 8.72602
1 3.80849 11.8747 4.20605
1 10.146 8.82367 9.25038
1 10.293 1.8563 3.64133
1 1.77419 2.99278 9.5605
1 11.0525 4.54773 1.18312
1 9.71151 11.8217 9.8313
1 2.99088 9.77806 0.373403
1 0.395203 12.5463 8.45777
1 2.18777 0.779898 12.3282
1 1.60019 2.04761 4.02848