96
 Atoms. Timestep: 0
2 0 7.95642 4.74695
2 4.63304 0 11.358
2 0 4.63304 4.74695
2 7.95642 0 11.358
2 0 4.63304 8.47514
2 7.95642 0 1.8641
2 0 7.95642 8.47514
2 4.63304 0 1.8641
2 10.7421 8.43088 6.61105
2 4.15858 10.7421 0
2 1.84736 4.15858 6.61105
2 8.43088 1.84736 0
2 1.84736 8.43088 6.61105
2 8.43088 10.7421 0
2 10.7421 4.15858 6.61105
2 4.15858 1.84736 0
2 10.5201 6.29473 5.04003
2 6.29473 10.5201 11.6511
2 2.06934 6.29473 5.04003
2 6.29473 2.06934 11.6511
2 2.06934 6.29473 8.18207
2 6.29473 2.06934 1.57102
2 10.5201 6.29473 8.18207
2 6.29473 10.5201 1.57102
2 10.1594 8.65935 9.20274
2 3.93011 10.1594 2.59169
2 2.43004 3.93011 9.20274
2 8.65935 2.43004 2.59169
2 2.43004 8.65935 9.20274
2 8.65935 10.1594 2.59169
2 10.1594 3.93011 9.20274
2 3.93011 2.43004 2.59169
2 2.43004 3.93011 4.01936
2 8.65935 2.43004 10.6304
2 10.1594 8.65935 4.01936
2 3.93011 10.1594 10.6304
2 10.1594 3.93011 4.01936
2 3.93011 2.43004 10.6304
2 2.43004 8.65935 4.01936
2 8.65935 10.1594 10.6304
2 0 10.703 0
2 1.88643 0 6.61105
2 0 1.88643 0
2 10.703 0 6.61105
2 0 0 1.872
2 0 0 8.48305
2 0 0 11.3501
2 0 0 4.73905
2 11.2706 2.31295 2.18973
2 10.2765 11.2706 8.80078
2 1.31887 10.2765 2.18973
2 2.31295 1.31887 8.80078
2 1.31887 2.31295 2.18973
2 2.31295 11.2706 8.80078
2 11.2706 10.2765 2.18973
2 10.2765 1.31887 8.80078
2 1.31887 10.2765 11.0324
2 2.31295 1.31887 4.42131
2 11.2706 2.31295 11.0324
2 10.2765 11.2706 4.42131
2 11.2706 10.2765 11.0324
2 10.2765 1.31887 4.42131
2 1.31887 2.31295 11.0324
2 2.31295 11.2706 4.42131
1 11.0086 7.83654 8.10972
1 4.75292 11.0086 1.49867
1 1.5809 4.75292 8.10972
1 7.83654 1.5809 1.49867
1 1.5809 7.83654 8.10972
1 7.83654 11.0086 1.49867
1 11.0086 4.75292 8.10972
1 4.75292 1.5809 1.49867
1 1.5809 4.75292 5.11238
1 7.83654 1.5809 11.7234
1 11.0086 7.83654 5.11238
1 4.75292 11.0086 11.7234
1 11.0086 4.75292 5.11238
1 4.75292 1.5809 11.7234
1 1.5809 7.83654 5.11238
1 7.83654 11.0086 11.7234
1 10.1088 10.1088 3.30552
1 2.48067 10.1088 9.91657
1 2.48067 2.48067 3.30552
1 10.1088 2.48067 9.91657
1 2.48067 10.1088 3.30552
1 10.1088 10.1088 9.91657
1 10.1088 2.48067 3.30552
1 2.48067 2.48067 9.91657
1 0 1.60471 1.57853
1 10.9848 0 8.18958
1 0 10.9848 1.57853
1 1.60471 0 8.18958
1 0 10.9848 11.6436
1 1.60471 0 5.03252
1 0 1.60471 11.6436
1 10.9848 0 5.03252
96
 Atoms. Timestep: 2000
2 -0.176824 8.17116 4.70399
2 5.01634 12.6148 12.0523
2 -0.109513 3.68903 5.08057
2 7.79649 0.0345294 11.8495
2 0.00988928 4.81338 8.3875
2 8.14055 12.2812 1.2786
2 12.7838 8.79203 8.18761
2 5.55743 -0.271429 2.12603
2 11.1546 8.31915 6.60079
2 4.53557 10.9918 0.282697
2 1.58046 4.56019 6.40859
2 8.26031 1.55509 13.2494
2 1.26989 8.1549 6.40418
2 8.72673 10.3595 13.087
2 10.8547 4.74597 6.45442
2 4.13033 0.907389 0.104266
2 10.8161 5.88555 4.55307
2 6.45158 10.5062 11.7575
2 1.22091 6.25958 4.87807
2 6.29089 1.98177 11.8675
2 1.73415 6.30628 8.25097
2 6.69313 1.82193 1.10702
2 10.7137 6.60921 7.67378
2 6.75228 10.3254 1.92819
2 10.2419 9.1347 8.80033
2 3.97355 10.4563 2.24506
2 1.826 4.06462 9.52089
2 8.93995 1.73656 2.3258
2 1.62379 8.93212 9.57613
2 9.55896 10.0954 2.2437
2 10.8647 3.92654 8.84964
2 3.7302 2.2198 2.31109
2 1.9858 3.71297 3.61515
2 8.48172 2.52954 10.4028
2 11.2394 8.8791 3.7877
2 3.65457 9.86905 10.8444
2 9.99136 3.36894 4.29041
2 3.33298 1.78889 11.3055
2 2.6261 8.4543 3.53438
2 9.16837 11.1471 10.9819
2 0.219983 11.1587 13.1104
2 0.945485 -0.302126 7.08004
2 12.165 1.14186 13.4568
2 10.5862 12.3065 6.90298
2 12.2934 0.037363 1.47793
2 12.5136 0.392368 8.79502
2 12.5204 0.128743 11.2483
2 1.91143 1.52282 3.98881
2 11.5522 2.16453 2.181
2 9.83898 11.7926 9.21262
2 1.26711 11.3518 2.22027
2 1.09559 1.60262 9.12176
2 1.19982 1.36353 1.48749
2 2.36946 11.705 8.58018
2 11.6479 10.3755 1.94303
2 9.86818 0.947577 9.16928
2 0.799034 11.9724 10.4306
2 2.23514 0.649612 4.76765
2 11.1016 2.50213 11.2452
2 10.6465 11.6245 4.24801
2 11.3267 10.1978 10.9528
2 10.9013 0.852154 4.702
2 0.562407 2.13769 11.2208
2 2.66117 11.4525 4.27867
1 11.1316 8.2906 8.18876
1 5.36221 11.2714 2.00248
1 1.54632 4.81228 7.95479
1 8.06566 0.961919 1.17394
1 1.18197 7.67818 8.17941
1 8.4313 10.6576 1.12965
1 11.6058 4.99772 7.91666
1 5.0302 1.39526 1.68306
1 1.21839 4.55366 4.84122
1 7.85414 1.6286 11.6357
1 11.185 7.51687 5.1393
1 4.56096 10.8678 12.3892
1 11.156 4.25983 4.82211
1 4.74211 1.31721 12.0992
1 1.48465 7.78404 4.77681
1 7.81469 11.2555 11.9191
1 10.3458 10.0984 3.59065
1 2.14644 10.4984 9.99113
1 2.14777 2.18445 2.55369
1 9.89594 2.57062 9.88479
1 2.54879 10.3634 2.9261
1 9.99414 10.1617 10.0824
1 10.3466 1.73867 3.24387
1 2.01616 2.55315 10.2503
1 12.7622 1.5852 1.10634
1 10.7895 -0.0933851 8.43152
1 -0.191722 11.2973 1.34875
1 1.10011 -0.0711625 8.69208
1 12.4888 11.7001 11.6961
1 1.97179 12.3447 5.56197
1 12.1987 1.57479 12.0839
1 11.0902 12.5091 5.4463
96
 Atoms. Timestep: 4000
2 12.6684 7.61115 4.4915
2 4.82849 -0.0674278 11.4899
2 0.058 4.51929 5.20306
2 7.77112 -0.0321681 11.4003
2 0.0809392 4.65644 9.28953
2 7.48009 11.9397 2.19141
2 8.48319 7.17167 8.09007
2 4.69777 12.3777 1.49384
2 11.1382 7.34898 6.93436
2 4.47012 10.68 13.3101
2 1.31589 4.57982 7.31885
2 8.09119 1.00928 0.180826
2 2.23292 7.98482 6.87648
2 7.685 11.072 13.2513
2 11.3285 4.12468 6.96958
2 4.39375 1.19963 -0.0571728
2 11.5107 5.93392 5.03692
2 6.81543 10.9986 11.295
2 1.99081 6.79145 5.14114
2 6.29351 2.02497 12.5387
2 2.56936 6.28957 8.94796
2 6.37874 1.20134 2.43957
2 10.5173 6.41036 8.80455
2 5.60882 9.90192 1.64635
2 9.53648 9.40763 8.73465
2 2.88628 11.0051 2.543
2 2.48929 3.89213 9.94609
2 9.12683 1.77539 2.45874
2 3.44708 8.50625 8.94318
2 8.67628 9.61267 1.47496
2 10.4138 3.70687 8.90614
2 3.46163 2.79023 1.90869
2 2.12514 4.1702 4.10458
2 9.08175 2.20266 10.8924
2 10.9161 8.28594 3.55911
2 4.25919 10.1384 10.6598
2 10.1736 3.28254 4.32457
2 3.83926 2.35123 11.1883
2 2.04768 9.41495 4.38029
2 9.53428 10.7655 10.4801
2 0.0592982 11.6755 12.9438
2 2.23038 0.19459 6.78705
2 12.0836 2.99282 -0.108433
2 10.9478 11.8146 5.94718
2 11.5582 0.266086 1.4246
2 0.37763 0.0831196 7.61898
2 12.3527 0.601132 12.3059
2 3.92199 0.140414 5.31765
2 10.9616 2.50114 2.64876
2 11.0728 12.3752 8.09749
2 0.856406 11.3036 2.19715
2 2.41441 0.781279 9.53735
2 0.682608 2.129 2.5834
2 2.41745 10.8583 8.51148
2 11.9387 10.3324 1.88287
2 10.6618 1.4352 8.24734
2 0.669235 11.8789 9.81883
2 1.84088 2.07817 4.52573
2 10.9924 1.81172 11.0376
2 10.1244 10.3824 3.27465
2 11.008 12.0651 10.2957
2 10.7965 9.39589 6.03373
2 0.96706 2.00967 11.6424
2 1.32411 12.0133 4.74709
1 9.82681 7.94911 8.00985
1 3.97515 10.8696 1.2256
1 1.52602 4.65826 8.99681
1 7.81595 0.657684 1.89434
1 3.21142 7.42137 7.85774
1 7.2685 10.5395 1.19146
1 11.4951 4.90594 8.50347
1 4.84699 1.30737 1.80719
1 1.54771 5.20322 5.6349
1 7.87708 1.64162 11.9829
1 11.2061 7.59383 5.44939
1 5.07731 11.2551 11.7004
1 11.4849 4.2846 5.40036
1 4.75517 1.28418 11.9631
1 1.42743 8.21844 5.22813
1 8.39669 11.359 11.7023
1 10.3136 8.9962 2.08446
1 3.25648 9.82508 9.47037
1 1.88047 2.88388 3.09795
1 10.3888 2.27345 9.49254
1 1.4863 10.8947 3.65577
1 10.4261 10.9846 8.95133
1 9.58472 3.26338 2.74037
1 2.3659 2.14097 10.4575
1 12.1308 2.2119 1.6476
1 11.9148 -0.137055 6.76259
1 12.668 11.7445 1.09557
1 1.68947 12.4622 8.42004
1 12.7335 12.2478 11.1964
1 2.03843 0.602113 5.23476
1 12.3862 2.29145 11.9384
1 10.3331 10.6271 5.05096
96
 Atoms. Timestep: 6000
2 0.647291 7.89714 4.52968
2 4.31195 13.1686 10.3394
2 -0.115138 4.65596 5.46006
2 6.86474 -0.0333934 12.3008
2 0.194679 4.07399 7.80946
2 7.79139 0.0632437 1.83561
2 8.83492 6.23902 8.68267
2 5.63177 0.00942452 0.315521
2 -0.269984 7.50427 6.74599
2 4.3923 10.9955 12.8515
2 1.84684 4.59362 6.86494
2 7.28679 2.2286 0.307072
2 1.59227 8.22317 6.7603
2 8.67664 12.1515 13.3553
2 10.996 4.49188 6.11855
2 4.19766 1.10488 13.0163
2 11.4963 7.08189 4.78297
2 6.05401 11.1525 11.6737
2 2.18032 6.24011 4.63787
2 6.10534 1.90914 11.7781
2 1.2049 6.10222 8.83105
2 6.08344 1.85322 2.00067
2 11.1998 5.49922 9.01898
2 6.57895 11.5248 0.422974
2 10.0899 7.96222 10.0568
2 4.72136 10.6361 1.99948
2 1.94211 3.44494 9.85106
2 8.44329 3.20516 2.27862
2 1.25461 8.83303 9.1764
2 9.56449 10.6132 1.49235
2 11.0821 3.00976 8.91184
2 3.74303 2.96019 1.59717
2 2.00712 4.06807 3.93121
2 8.3488 1.15802 10.8009
2 11.6866 10.2479 0.507209
2 3.51718 10.4139 10.6982
2 10.1933 4.82904 3.67567
2 10.7409 8.49147 0.347015
2 3.24381 9.04677 3.89668
2 8.52216 10.4643 10.7664
2 0.149815 10.3909 13.3345
2 1.59928 -0.0155232 7.81065
2 1.61453 2.0105 1.7651
2 10.4463 11.8199 7.14926
2 1.47882 12.01 0.717039
2 12.3179 0.0740717 8.94824
2 9.03181 0.928613 13.4553
2 0.747689 0.15243 5.1772
2 9.22583 6.02846 1.16386
2 10.5706 11.3736 10.1169
2 2.0669 9.99882 1.66574
2 1.6542 1.10242 10.3224
2 3.04271 0.821643 0.79017
2 1.66416 11.8242 9.23752
2 12.7427 11.1207 1.93701
2 9.75319 0.239549 8.92321
2 11.043 9.5155 11.1883
2 1.97642 1.58844 3.65485
2 10.8768 1.38781 10.9233
2 10.6544 10.8825 3.99647
2 9.3492 12.4545 11.4593
2 11.8847 9.77367 5.92646
2 11.1591 11.6595 12.1607
2 2.16872 11.4508 3.69942
1 10.3078 6.88448 8.84671
1 5.00703 11.6774 0.403047
1 1.91362 4.45933 8.47719
1 7.67691 1.75738 1.80819
1 1.01146 7.41734 8.06035
1 8.14473 11.4611 1.00459
1 11.7559 4.08354 7.97912
1 4.57669 1.50586 0.78605
1 1.55532 4.8401 5.21663
1 7.7036 1.54958 12.2933
1 12.4736 8.21655 5.49406
1 4.12613 11.7053 11.203
1 11.368 5.37625 4.70885
1 4.64372 1.24206 11.6036
1 2.46876 7.76868 5.11576
1 7.87275 11.7755 11.739
1 11.0344 10.8601 2.30652
1 2.44282 9.99452 9.4492
1 2.67186 2.9008 3.05407
1 9.57154 1.87677 9.64926
1 3.20652 10.2624 2.86601
1 9.83161 9.90936 10.1238
1 9.08369 4.88819 2.48173
1 2.53481 2.18354 10.7429
1 1.49959 0.3566 1.06987
1 11.0951 12.2717 8.90217
1 0.657703 10.7193 0.979037
1 0.764183 0.00174172 9.30382
1 11.769 10.2704 12.6683
1 1.41093 0.0554423 3.71051
1 10.4684 0.143224 12.1417
1 10.4923 10.8268 5.74607
96
 Atoms. Timestep: 8000
2 0.6964 7.4168 5.59054
2 4.66897 11.2202 10.0911
2 11.6344 8.10651 7.65731
2 9.42817 10.196 7.8906
2 0.478888 4.38449 8.6398
2 7.71024 1.07035 11.9741
2 11.9371 6.22672 9.99404
2 3.92819 11.3702 0.81431
2 1.02549 8.1076 9.18953
2 4.85096 9.22222 12.1906
2 3.6269 4.48243 7.34485
2 6.6262 3.15133 11.1518
2 2.83835 8.06102 6.80514
2 8.00401 8.92752 3.28996
2 11.2425 3.94738 5.56844
2 3.8726 0.115678 11.1858
2 10.4074 6.48737 5.44947
2 3.62541 9.07571 9.30808
2 2.31484 5.62177 5.63958
2 6.67467 0.671461 9.77661
2 2.34799 6.51111 9.50541
2 5.62677 1.30952 12.4613
2 12.2185 5.86507 6.56122
2 5.73683 10.1706 1.80597
2 10.9555 9.23757 10.6322
2 3.2897 9.34634 1.90709
2 1.12746 4.25257 11.0371
2 7.4902 3.30285 1.94847
2 0.872742 3.05985 6.17155
2 8.18278 11.467 3.29434
2 11.3111 3.53549 7.80328
2 5.13019 2.47353 2.10475
2 3.80712 2.77249 5.20867
2 8.35426 2.75904 8.85819
2 8.35427 11.2907 1.24804
2 2.36688 10.6076 10.645
2 8.79594 4.33361 4.1965
2 6.53072 2.71203 1.07551
2 2.41851 8.07764 4.06349
2 9.39629 11.096 11.4166
2 0.46282 12.3994 0.386976
2 2.53499 2.80978 7.45613
2 2.63274 2.16173 3.09323
2 10.8895 11.6141 6.12825
2 0.758252 0.919262 2.28918
2 0.30014 12.4064 8.02517
2 8.78442 2.79553 10.8373
2 2.96676 0.49818 7.31701
2 9.66454 1.23568 3.1601
2 10.5655 11.3068 9.19943
2 1.0633 10.3501 1.95468
2 0.863463 2.44317 9.58848
2 2.94818 0.557204 0.771019
2 1.7725 0.480035 9.66085
2 11.0348 12.1681 1.97482
2 10.2081 0.753017 7.93153
2 11.824 11.6989 10.7651
2 3.84352 0.859671 4.67995
2 10.316 1.99723 9.77543
2 10.3638 11.0246 3.69986
2 9.64804 1.16284 12.7004
2 10.5033 8.88303 5.66689
2 12.0416 1.57513 11.5416
2 5.06809 12.668 7.87601
1 11.6112 7.90707 9.2986
1 4.71302 9.6647 0.717796
1 1.07245 5.66829 10.1536
1 5.89307 2.82605 12.816
1 2.58789 7.66196 8.57911
1 7.23736 10.2814 2.38197
1 12.2943 4.13504 6.83438
1 4.31604 0.263566 12.9044
1 2.61687 3.87327 6.11966
1 7.30923 2.18606 10.1555
1 11.6901 7.53126 6.23948
1 4.24519 9.73029 10.7197
1 9.9418 4.85597 5.27091
1 5.10804 0.169877 9.66717
1 2.28731 7.35139 5.46603
1 8.67136 12.5166 12.7908
1 9.62047 12.2771 2.8172
1 1.96202 12.1764 10.9356
1 4.35085 2.3854 3.75754
1 10.1639 2.30892 8.17086
1 1.70969 8.93457 2.27048
1 10.5973 10.7565 10.5819
1 8.53184 2.72348 3.21672
1 0.513335 2.86149 11.1058
1 1.95879 1.48496 1.66512
1 11.2693 12.1787 7.60989
1 -0.057953 11.7443 1.93279
1 1.44301 1.27595 8.03589
1 12.5923 0.00631079 12.0105
1 4.25794 0.473452 6.17005
1 10.2924 2.29635 11.3694
1 10.2504 10.3426 5.23462
96
 Atoms. Timestep: 10000
2 0.820342 7.69126 5.33735
2 4.8554 10.2777 10.1452
2 11.9339 7.40934 7.67358
2 5.28253 4.00673 12.5909
2 11.9993 4.96457 8.81253
2 7.8904 0.485621 10.4058
2 0.00364418 6.69427 10.0855
2 4.87098 12.1186 0.458514
2 1.19765 8.47084 8.64896
2 4.59826 9.82603 12.5686
2 1.92014 4.15362 8.17691
2 5.49525 1.31157 11.9591
2 3.32165 7.83348 6.71525
2 6.50141 1.481 1.05153
2 8.88329 4.55301 4.79278
2 3.6968 1.98162 12.3757
2 11.6904 5.74718 4.74866
2 3.44942 8.18276 10.0118
2 2.60368 5.37885 5.51787
2 5.47209 0.432768 9.1688
2 2.06219 6.57045 8.90952
2 4.525 3.13907 1.23337
2 10.5973 6.02212 6.59474
2 6.59422 11.0874 1.53017
2 12.0323 9.52892 9.85284
2 4.27513 9.37733 1.81953
2 0.757045 3.88426 10.6336
2 11.3789 3.66239 3.2924
2 12.8531 4.74739 6.54321
2 9.14181 11.7008 2.46667
2 9.7518 3.30283 7.50425
2 4.80343 3.35868 4.38482
2 2.46244 3.21686 5.45549
2 6.73977 2.66787 9.25641
2 7.99746 12.0581 13.5986
2 2.28932 12.2588 11.5738
2 0.724766 2.35537 2.56076
2 5.57965 5.88422 1.99953
2 3.24784 7.87278 3.77241
2 9.88281 10.8476 11.5451
2 1.34479 10.7666 -0.0477569
2 0.984096 2.37471 6.5927
2 3.13332 1.22278 3.72363
2 9.08783 10.9111 6.71044
2 1.02288 12.3825 2.22674
2 11.2385 0.283829 7.50066
2 10.0996 3.26258 12.2355
2 1.91323 -0.109489 7.43831
2 10.9917 1.11469 3.36215
2 10.1792 11.0333 8.66432
2 1.85038 9.81591 2.2525
2 -0.446209 1.69362 8.92532
2 3.63718 1.411 1.74746
2 2.89771 1.69526 9.54051
2 11.3875 10.9821 1.95746
2 8.51159 1.17765 7.42383
2 12.3381 11.2372 10.93
2 3.97952 1.44566 6.20802
2 11.3306 1.69887 0.997208
2 10.65 11.333 4.65907
2 9.31024 0.954179 12.7443
2 10.7739 8.35843 6.26501
2 11.7946 1.85777 11.4953
2 4.98223 11.6951 7.63896
1 12.2337 8.0751 9.14668
1 5.05927 10.6481 0.827901
1 1.05969 5.22577 9.5049
1 5.16413 4.76278 0.975756
1 2.82066 8.0793 8.46676
1 7.47065 12.4613 1.87882
1 11.288 4.55135 7.23108
1 4.80693 1.65791 0.379709
1 1.69635 4.07324 6.47156
1 6.23981 1.38801 10.2574
1 11.8232 7.16599 6.03486
1 4.90371 9.03997 10.9793
1 10.4529 4.34324 4.37592
1 5.74087 11.2871 9.11254
1 2.24097 7.05473 5.0113
1 8.88048 12.157 11.6274
1 10.6523 12.0121 3.39877
1 2.52022 1.54174 11.1995
1 3.73251 2.20771 4.85056
1 8.18015 2.81746 8.38318
1 3.166 8.5263 2.23731
1 11.0894 10.8786 10.1813
1 11.6716 2.21315 2.53907
1 0.436328 2.22915 10.4205
1 2.19304 1.47559 2.33573
1 9.66125 12.4863 7.5916
1 0.733026 10.8239 1.43545
1 0.484826 1.16237 7.54041
1 1.25952 11.0756 11.6768
1 3.79563 0.0985669 6.97058
1 10.6613 1.69989 12.5632
1 10.0774 9.78965 5.51786
96
 Atoms. Timestep: 12000
2 1.44082 6.33489 5.02258
2 4.82851 11.3137 9.14998
2 10.7799 8.35628 8.04339
2 6.88357 2.07181 2.1167
2 11.1912 5.6216 8.14361
2 7.83807 2.45831 12.3542
2 12.2339 6.52938 9.73912
2 3.61306 11.6218 12.762
2 0.913652 8.06476 8.11115
2 5.03782 8.28567 7.90581
2 1.25268 3.9415 8.12544
2 5.77316 1.81721 11.7376
2 3.07457 7.30294 6.93545
2 5.49416 12.5425 1.37588
2 0.42223 4.34658 0.53034
2 4.02084 0.989357 11.0497
2 11.4076 5.97774 3.17469
2 2.82685 9.04697 8.52088
2 3.32727 6.04588 3.96263
2 6.65731 1.2229 9.5329
2 2.22994 6.23972 9.29441
2 5.71858 4.89726 1.59495
2 10.9038 5.65213 5.25935
2 5.02793 0.97294 3.86064
2 10.2607 9.16122 10.0565
2 3.68618 9.25544 2.01591
2 0.74641 4.33678 10.9572
2 11.7029 3.44332 2.68927
2 11.5744 3.79566 6.44271
2 10.1935 10.6621 1.76782
2 9.43292 4.30306 7.74548
2 4.68911 3.97025 3.69357
2 2.45768 3.62914 5.90815
2 8.46593 2.5062 9.80498
2 7.54599 11.9077 2.05429
2 1.30915 12.0466 11.0761
2 0.346224 1.56775 1.7225
2 7.15549 4.02585 4.02426
2 3.69941 8.34536 4.67464
2 9.55143 10.7914 12.2976
2 1.31198 10.1406 12.915
2 0.72418 1.586 6.85147
2 2.6315 2.47968 3.25998
2 9.9819 10.3606 6.85779
2 2.25411 0.336835 2.10035
2 11.67 11.6906 6.96046
2 7.71352 4.01369 1.61323
2 2.34541 0.275989 5.80081
2 10.794 12.3572 3.79049
2 10.099 11.5425 9.21259
2 3.44828 10.6939 3.96755
2 1.68827 2.32237 11.6135
2 3.43238 2.0399 0.710771
2 1.74683 0.214489 8.90105
2 12.6481 10.875 3.94922
2 8.95322 1.1515 7.74157
2 11.4275 10.4758 11.1353
2 4.30661 2.14876 5.71969
2 9.91996 1.56711 1.27039
2 10.667 9.968 4.86603
2 9.86644 4.23738 1.75196
2 11.1264 7.69516 5.04791
2 10.6655 2.94429 12.5207
2 5.13313 0.105265 6.65779
1 11.5551 7.91039 9.35325
1 3.03557 10.0628 0.599387
1 0.681746 5.19623 9.02018
1 6.40207 3.82208 2.51012
1 2.55823 7.53292 8.27411
1 6.2151 0.715543 2.74793
1 10.6649 5.24052 6.72901
1 4.5404 1.16048 12.7509
1 1.11145 3.21668 6.70173
1 7.17509 2.10453 10.9228
1 12.1034 6.52752 4.61484
1 4.25244 9.74566 8.79708
1 11.4564 4.88172 1.89142
1 5.78924 0.393563 8.40031
1 3.12197 6.90643 5.3872
1 9.15239 11.6322 1.03182
1 10.8364 10.6092 3.46182
1 2.51131 1.31263 10.2928
1 3.4559 3.43099 4.70551
1 8.76799 2.77088 8.10235
1 4.37541 9.45684 3.64494
1 9.65356 10.5922 10.6761
1 11.1083 1.54788 2.65871
1 0.256718 3.24706 12.0747
1 2.02681 2.09148 1.70221
1 10.0993 11.8123 7.49676
1 1.77379 11.5813 3.4253
1 1.14074 12.2652 7.07396
1 0.857365 10.4414 11.3186
1 4.27995 0.504354 5.34804
1 8.89736 2.99928 0.784668
1 10.9654 8.80871 6.33953
96
 Atoms. Timestep: 14000
2 0.898362 7.39275 4.76747
2 5.59485 10.0743 9.57992
2 12.1287 9.6449 7.25632
2 6.45287 1.20287 2.78049
2 11.7337 5.693 8.15878
2 7.45042 2.6076 11.8857
2 0.757648 7.43412 9.34019
2 4.61174 9.75252 11.8247
2 2.56432 8.67103 7.78256
2 4.9105 7.71475 10.6161
2 2.06667 4.41278 8.18038
2 7.19436 10.7807 12.3436
2 2.73808 6.27611 5.98117
2 5.32957 11.786 1.26111
2 11.48 4.76612 0.797185
2 4.01604 12.2244 11.4628
2 11.11 6.94299 3.08675
2 4.53431 8.34994 8.17349
2 1.59336 5.74491 3.32914
2 5.9995 1.16264 9.15753
2 2.83083 6.53234 8.29948
2 7.32508 3.60503 1.46967
2 10.6729 6.34671 5.51733
2 5.24763 11.4062 4.34341
2 1.60473 10.2366 9.39041
2 3.35492 8.08662 1.11259
2 0.542173 5.20716 10.6395
2 11.0763 4.292 3.18041
2 0.635261 5.11182 6.13342
2 9.28939 11.4886 2.85596
2 9.86172 4.23411 7.01113
2 4.91886 2.81883 3.58704
2 3.11365 4.10367 5.2107
2 7.03218 2.86558 8.21127
2 7.22548 10.3115 2.53007
2 1.91813 11.9446 11.2346
2 12.0906 2.31473 2.2945
2 5.54524 4.24108 2.04952
2 0.675495 7.0899 1.63315
2 10.0862 10.6928 0.927191
2 2.78327 8.87381 11.2219
2 2.18896 2.59081 6.87008
2 2.37762 2.52653 3.04677
2 9.77341 11.1616 8.08777
2 1.79221 11.8465 3.35999
2 0.568824 0.889957 8.70016
2 7.06644 2.67172 4.24231
2 3.17914 0.354391 7.45148
2 9.67298 1.76779 3.57503
2 10.5124 11.8489 10.3499
2 1.52111 9.51424 2.94819
2 1.44261 3.13759 11.3034
2 2.03133 1.09327 13.0028
2 2.21739 1.97509 9.83706
2 11.0091 11.4996 4.13378
2 9.43801 1.97169 8.55384
2 0.633493 9.85812 11.4605
2 3.23478 1.56916 5.42898
2 9.65874 3.60216 1.89666
2 9.58113 11.2744 5.59658
2 8.95523 5.2904 0.521832
2 10.3577 9.04614 5.46325
2 9.94113 4.17552 11.6269
2 5.45589 11.5863 7.21918
1 0.973196 8.9006 8.56611
1 3.96627 7.95356 11.839
1 1.40293 5.71371 9.00735
1 6.28837 2.72281 2.40291
1 3.61856 7.37113 7.18841
1 6.01406 11.3296 2.87981
1 10.7288 5.49896 6.79134
1 5.29865 11.266 12.1583
1 2.02992 4.45644 6.62529
1 7.10506 2.23983 9.96841
1 10.9885 7.60203 4.66991
1 5.59234 8.3944 9.34839
1 11.6591 5.57683 2.20109
1 5.10946 11.4478 8.84673
1 2.23685 6.60707 4.43793
1 8.54741 10.5807 1.36712
1 9.42049 12.0545 4.26401
1 2.57656 1.50719 11.3946
1 3.52537 2.74363 4.20163
1 8.69263 3.12644 7.74394
1 1.91732 8.06168 1.94095
1 11.1963 11.0366 11.8783
1 10.6282 2.832 2.86361
1 11.7799 3.76435 11.7697
1 1.78407 1.3329 2.27704
1 10.4668 0.598737 8.80105
1 0.48007 10.6518 3.36131
1 1.92783 1.33148 8.23399
1 2.16404 10.3003 10.9647
1 4.26192 11.7889 5.95431
1 8.79481 3.53979 12.9634
1 10.6956 10.2899 6.69773
96
 Atoms. Timestep: 16000
2 1.19739 6.39938 5.75308
2 6.77612 10.0196 8.46172
2 11.6092 9.26853 7.63254
2 6.77325 0.708334 3.90718
2 10.5078 5.41435 8.56289
2 8.36665 2.49321 11.8308
2 0.718066 7.11321 9.47635
2 4.71115 11.1264 11.6297
2 2.22641 8.04533 8.07926
2 4.95701 8.85052 11.0298
2 1.17984 4.83919 7.74012
2 5.9503 11.0406 0.74184
2 3.41794 6.8872 6.00197
2 3.43445 0.466977 0.933633
2 0.172235 4.57106 1.04428
2 3.93429 1.20062 11.6064
2 11.3881 6.30524 3.72447
2 4.89565 8.51517 8.31472
2 1.96812 5.77943 3.2477
2 6.85537 12.2943 9.55278
2 2.87256 6.23777 8.87352
2 7.99778 2.17776 1.49659
2 10.2763 6.94261 6.19952
2 4.76479 11.8107 5.30268
2 11.9793 9.99936 10.2117
2 3.50205 8.60661 12.9615
2 11.8508 5.19043 10.5803
2 11.7038 3.9629 2.99274
2 11.0351 4.72994 6.6328
2 8.52777 10.8297 2.47714
2 9.07997 3.76294 7.09684
2 5.85478 2.79208 3.79029
2 3.18254 4.28455 4.78697
2 7.81689 2.71639 9.12924
2 6.27083 10.6768 3.11515
2 1.44829 0.38946 10.9667
2 0.631233 2.28401 2.33876
2 6.04935 1.90842 12.2321
2 1.44323 6.56896 1.09554
2 8.76882 10.4686 12.7223
2 2.18322 10.4882 11.9456
2 1.33985 2.18178 7.06171
2 3.42054 2.3757 2.67267
2 11.3298 11.3426 6.90599
2 2.2579 12.0851 2.88027
2 0.81548 12.5663 8.77706
2 5.3508 1.37807 1.84212
2 3.31406 0.78483 7.5498
2 9.96245 1.19879 3.25421
2 10.3585 12.0099 9.98238
2 1.89511 9.45679 2.16718
2 1.23538 3.11407 11.2246
2 2.33294 2.43661 13.0078
2 2.06284 1.99123 9.69504
2 11.4753 10.8895 2.34391
2 9.8915 1.42676 8.2274
2 11.1551 11.3155 12.1813
2 3.72551 1.96034 5.44365
2 9.66818 3.26348 1.85801
2 10.4537 10.8032 4.71647
2 8.34947 5.18142 0.682913
2 11.9278 8.66925 4.91593
2 10.3386 4.04407 12.5256
2 5.93809 0.52689 7.21756
1 0.956385 8.74673 8.89795
1 3.5282 9.80714 11.5276
1 0.385874 5.57158 8.96662
1 6.7349 1.74155 2.61104
1 3.61315 7.32645 7.87203
1 6.3921 11.2944 4.5821
1 9.51293 5.43509 7.15323
1 5.05382 12.3862 12.8376
1 0.649081 3.67035 6.71054
1 7.14371 2.05234 10.5616
1 11.528 7.11675 5.04803
1 6.0687 8.98075 9.38333
1 0.691895 5.38933 2.45747
1 6.94386 11.6457 8.17047
1 2.50733 5.83451 4.96848
1 7.34117 10.3652 1.584
1 10.1071 11.3858 3.20567
1 2.49569 1.82285 11.3536
1 4.02017 3.2184 3.91045
1 8.58838 2.6211 7.82519
1 2.07512 8.45991 1.19657
1 9.65806 11.6868 11.5586
1 10.7677 2.60179 2.49984
1 11.8366 3.92159 11.7373
1 2.18432 1.60781 2.07929
1 11.2288 0.365214 8.36956
1 1.09223 10.7022 2.79384
1 2.03993 1.48495 8.27818
1 0.700932 10.8862 11.5022
1 4.39402 1.05272 6.53995
1 8.64284 3.44638 0.628734
1 11.1709 9.84666 6.0034
96
 Atoms. Timestep: 18000
2 2.21258 4.68095 5.83812
2 4.60501 11.4447 8.29708
2 11.5816 8.85519 8.11632
2 7.31296 1.27325 3.17201
2 10.9108 5.70822 8.71798
2 9.51931 0.690396 1.32132
2 0.407887 7.23142 9.87888
2 4.55594 10.7081 0.607486
2 2.28928 8.46231 7.8666
2 2.44255 11.9437 8.00492
2 0.779788 4.93878 8.70054
2 7.57722 11.1161 0.824584
2 2.92968 6.74777 5.27723
2 2.3408 1.63325 13.137
2 11.6565 4.64536 1.16942
2 3.46642 3.23453 11.499
2 10.6183 6.06458 3.39194
2 3.65702 9.36285 6.88631
2 0.968221 6.23561 3.64805
2 6.21235 1.70053 9.67443
2 5.14961 6.87233 6.32464
2 7.89965 2.90888 0.934937
2 10.0937 5.97565 5.88
2 6.51897 12.3718 5.4749
2 0.904597 9.87021 9.46908
2 2.37106 8.93363 1.26888
2 11.4585 5.00844 11.0191
2 12.2081 3.77399 3.00759
2 11.9162 4.4134 6.7038
2 9.24929 12.7617 4.94606
2 9.29009 4.06393 7.85198
2 5.2409 2.84116 1.75131
2 3.0069 4.32097 3.24291
2 8.16966 1.29821 9.07584
2 8.14663 11.5205 2.9535
2 1.7183 0.324026 10.9466
2 0.93665 0.829056 2.08333
2 6.83366 12.5777 11.1017
2 0.721853 6.4044 1.6561
2 9.65519 11.1309 12.5588
2 2.63915 10.8849 11.9707
2 1.2605 2.13293 7.24678
2 3.56602 1.57452 2.63492
2 10.2683 11.3117 8.05507
2 9.66766 9.87803 2.08437
2 12.291 12.3759 8.60797
2 6.30477 0.749431 1.10638
2 4.35435 12.3671 6.26525
2 11.5668 1.0926 4.0677
2 10.766 0.138912 10.4741
2 12.0406 8.92842 2.4306
2 0.626136 2.99804 12.4804
2 2.82896 11.5206 1.60992
2 2.10296 2.0241 9.72054
2 10.3436 10.826 3.83091
2 10.4157 1.90138 8.34493
2 12.5158 10.6685 11.4668
2 5.44919 2.15308 4.56099
2 10.909 2.22794 1.47265
2 10.6185 11.473 6.14106
2 9.13059 1.96237 11.8094
2 9.76255 8.88874 6.031
2 10.6905 3.41625 12.5861
2 4.9571 1.4797 7.60919
1 0.832172 8.40754 8.94306
1 2.88675 10.2419 0.712251
1 12.0435 5.71735 9.83887
1 6.69489 2.1173 1.7347
1 3.60673 7.69393 6.71093
1 7.71819 12.3778 4.2841
1 10.4046 5.00265 7.18522
1 6.29114 11.5802 12.8218
1 1.15574 4.0873 7.00901
1 7.66535 1.60451 10.6537
1 10.1781 7.262 4.63935
1 3.70563 10.833 6.98067
1 12.2079 5.5727 2.62495
1 4.84631 0.800339 9.17471
1 2.24439 5.51102 4.49717
1 9.07595 11.322 1.24463
1 10.6139 12.1956 4.4227
1 2.01219 2.19029 11.3216
1 4.32707 2.92247 2.98531
1 9.03685 2.55675 8.09883
1 1.14517 7.96026 1.8953
1 11.0901 11.5272 11.8866
1 12.0759 2.21291 2.71352
1 12.0816 4.45006 12.4961
1 2.55063 0.735145 1.4538
1 10.8582 0.387458 8.73821
1 10.5944 9.20742 3.13794
1 1.56142 0.86138 8.36337
1 1.52271 11.011 10.6943
1 5.53147 1.21475 5.97433
1 9.38256 2.3992 0.37236
1 10.5837 10.0087 6.88422
96
 Atoms. Timestep: 20000
2 1.13188 4.60519 6.83298
2 5.09855 11.6933 7.54372
2 0.516895 8.67647 7.01148
2 7.57098 1.84123 4.00765
2 10.907 5.59452 9.23449
2 9.49937 10.9396 12.9445
2 0.502685 7.16148 8.86759
2 4.47167 11.5477 0.915682
2 3.19839 8.17934 7.77664
2 2.16685 10.9976 7.63034
2 0.997197 4.60971 9.07883
2 6.83715 11.2132 0.882899
2 2.35377 7.08973 5.74555
2 2.7336 2.18764 11.7076
2 11.5035 5.39002 1.68422
2 4.93128 0.904667 11.3632
2 10.816 6.30587 4.70391
2 4.24787 9.2662 5.80833
2 0.802628 6.08326 4.68993
2 7.07009 1.84769 7.93569
2 4.86368 6.96451 6.9457
2 7.9986 3.56608 1.95771
2 9.84117 6.66231 7.16526
2 6.40605 12.2373 4.7427
2 1.95345 9.68371 9.60788
2 1.65844 9.61342 0.896118
2 12.3675 5.3991 11.2914
2 11.4886 4.09352 3.34337
2 11.2182 3.84717 7.76903
2 9.06943 11.8535 5.33408
2 8.71772 3.89609 8.09999
2 5.63198 3.4042 2.47997
2 2.88986 4.0172 4.29515
2 8.6104 1.94803 9.39412
2 8.17082 11.6825 3.05511
2 2.47261 0.764742 9.28453
2 0.852683 2.42079 1.93143
2 7.03359 0.425067 11.1188
2 0.454787 7.29499 2.32902
2 10.9428 8.85785 0.242833
2 2.59027 11.6607 11.4675
2 1.22235 1.73018 7.2274
2 3.53898 3.61541 1.46544
2 10.3076 9.99546 8.29537
2 9.15879 9.58925 2.02017
2 11.9406 0.211237 9.13842
2 6.39455 1.47754 1.35976
2 4.41767 11.6865 5.42768
2 10.6264 1.68059 4.28911
2 10.3018 10.1973 10.4166
2 11.4241 9.47044 2.31302
2 1.37578 4.13387 0.418651
2 2.37348 0.760083 1.18403
2 4.48119 1.9141 9.32021
2 10.6561 11.225 3.90072
2 9.56145 0.516135 8.13956
2 12.2094 10.2707 11.3333
2 4.43131 2.16686 3.79548
2 9.64291 2.41601 1.93494
2 11.2313 10.9872 6.08518
2 9.11559 2.44428 11.7289
2 9.68987 8.70052 4.73189
2 10.0045 0.626897 10.4808
2 5.43193 1.88659 6.55563
1 1.65255 8.3873 8.44149
1 2.85899 11.3084 0.627742
1 0.57988 5.94125 9.6172
1 6.93669 2.62977 2.68434
1 3.80462 7.79928 6.40801
1 7.93765 0.182229 4.39941
1 9.99984 4.87652 8.09137
1 6.01631 0.422324 12.6928
1 0.856076 3.59232 7.75647
1 8.65942 1.28754 10.8041
1 9.95548 7.30862 5.78648
1 3.71531 10.6512 6.77124
1 11.7023 6.07456 3.30942
1 5.53064 1.16352 8.09171
1 1.91473 5.39673 5.499
1 8.42089 10.822 1.28927
1 10.9176 0.336667 5.26805
1 3.54396 1.33666 10.7829
1 4.19247 3.70195 2.98278
1 8.72044 1.83307 7.952
1 0.259594 8.285 1.13854
1 10.6519 9.99755 11.9331
1 11.2885 2.64413 2.86621
1 12.0254 4.89056 0.232791
1 2.16167 2.41213 0.62504
1 10.508 11.7312 9.373
1 10.2498 9.68581 3.37239
1 1.32649 12.1975 8.25715
1 1.63686 10.7696 10.8072
1 5.08617 1.23682 5.03148
1 8.98083 2.82089 0.646687
1 10.9096 9.49387 6.85761
96
 Atoms. Timestep: 22000
2 1.67757 4.22842 6.0596
2 4.85291 11.6567 7.80968
2 0.989261 9.64367 8.3173
2 7.59753 1.82225 3.1786
2 9.7682 5.99403 8.75087
2 9.7773 10.7001 12.6397
2 0.441619 6.89357 9.12459
2 4.71721 11.1493 12.6569
2 2.39081 7.73598 7.74238
2 2.0178 11.6478 8.03258
2 12.1727 4.5166 8.43322
2 6.77945 11.0457 0.419078
2 2.71056 7.06142 5.29277
2 3.29064 2.33916 11.9507
2 11.7517 5.26597 1.38242
2 5.1629 1.03004 11.1336
2 10.6889 5.24128 3.30605
2 3.3665 9.66948 6.76484
2 1.25348 5.58617 3.79751
2 6.81436 1.96954 8.17213
2 4.80384 7.28965 6.81907
2 8.19895 3.76803 2.55525
2 8.78686 5.61746 6.0605
2 6.03593 12.0062 4.31429
2 1.96087 9.23958 10.1981
2 2.15478 9.72643 1.17715
2 11.9679 5.6096 11.351
2 0.416723 3.33699 3.77038
2 11.3298 4.88515 6.17067
2 9.28624 11.8906 4.63946
2 7.53155 4.08932 8.03313
2 5.48392 3.37595 2.49945
2 3.52243 4.33276 3.93057
2 8.32798 3.07042 9.90971
2 7.68124 11.5677 2.27856
2 2.23864 1.92435 9.69618
2 11.4114 2.44031 5.80367
2 7.36711 1.53117 11.5947
2 1.6117 7.48937 2.11879
2 11.6484 8.89765 0.40253
2 3.30951 11.8926 10.8813
2 0.985479 2.06167 7.12356
2 2.76252 3.44882 1.75515
2 10.6528 10.9392 8.04125
2 8.53982 9.78463 2.44883
2 12.0913 0.343728 9.52611
2 6.30882 1.5198 1.0198
2 3.56818 12.1762 5.91315
2 11.5355 0.528037 3.84446
2 10.6995 10.7077 10.2464
2 11.0165 8.49172 2.49369
2 0.788839 3.31047 12.8486
2 2.97632 0.865325 0.846665
2 4.15162 1.37837 9.07382
2 10.5796 10.2891 3.65592
2 9.20633 1.18958 8.6637
2 0.941771 10.1164 12.0631
2 3.89807 1.70368 3.67558
2 10.7959 2.55192 2.63553
2 11.4073 10.1284 5.62043
2 9.43278 2.92426 13.0288
2 9.33512 7.6642 4.39768
2 10.2999 1.22862 10.8583
2 5.53059 0.905645 6.19818
1 1.58529 8.12523 9.24707
1 3.32231 11.2297 0.977164
1 11.5039 5.89458 9.72524
1 6.97538 2.754 2.00513
1 3.43674 8.12746 6.39751
1 7.80693 12.3097 3.80088
1 8.28393 5.71255 7.75566
1 6.22578 0.421262 12.4429
1 12.3624 3.64403 6.94926
1 8.86541 2.20083 11.22
1 10.4007 6.13877 5.06982
1 3.33685 11.292 7.23588
1 12.1512 4.82347 2.95399
1 5.51476 1.06633 8.16042
1 2.48525 5.28701 4.90476
1 8.29716 10.5727 0.978747
1 10.7641 11.3179 4.69625
1 3.78568 1.49271 10.6161
1 3.90703 3.15794 2.92946
1 8.36248 2.5966 8.2302
1 0.641846 8.74006 1.77838
1 10.9509 10.1012 11.9442
1 11.6447 2.14431 4.1563
1 0.607505 5.0868 12.7359
1 2.14977 2.60601 0.465864
1 10.4885 12.1708 9.51377
1 9.76682 8.95558 3.23404
1 1.34847 1.05457 8.3825
1 2.80676 10.35 11.3545
1 4.70718 0.68174 4.6038
1 9.70009 3.54152 1.82083
1 11.5961 10.0277 7.17345
96