96
 Atoms. Timestep: 0
2 0 7.95642 4.74695
2 4.63304 0 11.358
2 0 4.63304 4.74695
2 7.95642 0 11.358
2 0 4.63304 8.47514
2 7.95642 0 1.8641
2 0 7.95642 8.47514
2 4.63304 0 1.8641
2 10.7421 8.43088 6.61105
2 4.15858 10.7421 0
2 1.84736 4.15858 6.61105
2 8.43088 1.84736 0
2 1.84736 8.43088 6.61105
2 8.43088 10.7421 0
2 10.7421 4.15858 6.61105
2 4.15858 1.84736 0
2 10.5201 6.29473 5.04003
2 6.29473 10.5201 11.6511
2 2.06934 6.29473 5.04003
2 6.29473 2.06934 11.6511
2 2.06934 6.29473 8.18207
2 6.29473 2.06934 1.57102
2 10.5201 6.29473 8.18207
2 6.29473 10.5201 1.57102
2 10.1594 8.65935 9.20274
2 3.93011 10.1594 2.59169
2 2.43004 3.93011 9.20274
2 8.65935 2.43004 2.59169
2 2.43004 8.65935 9.20274
2 8.65935 10.1594 2.59169
2 10.1594 3.93011 9.20274
2 3.93011 2.43004 2.59169
2 2.43004 3.93011 4.01936
2 8.65935 2.43004 10.6304
2 10.1594 8.65935 4.01936
2 3.93011 10.1594 10.6304
2 10.1594 3.93011 4.01936
2 3.93011 2.43004 10.6304
2 2.43004 8.65935 4.01936
2 8.65935 10.1594 10.6304
2 0 10.703 0
2 1.88643 0 6.61105
2 0 1.88643 0
2 10.703 0 6.61105
2 0 0 1.872
2 0 0 8.48305
2 0 0 11.3501
2 0 0 4.73905
2 11.2706 2.31295 2.18973
2 10.2765 11.2706 8.80078
2 1.31887 10.2765 2.18973
2 2.31295 1.31887 8.80078
2 1.31887 2.31295 2.18973
2 2.31295 11.2706 8.80078
2 11.2706 10.2765 2.18973
2 10.2765 1.31887 8.80078
2 1.31887 10.2765 11.0324
2 2.31295 1.31887 4.42131
2 11.2706 2.31295 11.0324
2 10.2765 11.2706 4.42131
2 11.2706 10.2765 11.0324
2 10.2765 1.31887 4.42131
2 1.31887 2.31295 11.0324
2 2.31295 11.2706 4.42131
1 11.0086 7.83654 8.10972
1 4.75292 11.0086 1.49867
1 1.5809 4.75292 8.10972
1 7.83654 1.5809 1.49867
1 1.5809 7.83654 8.10972
1 7.83654 11.0086 1.49867
1 11.0086 4.75292 8.10972
1 4.75292 1.5809 1.49867
1 1.5809 4.75292 5.11238
1 7.83654 1.5809 11.7234
1 11.0086 7.83654 5.11238
1 4.75292 11.0086 11.7234
1 11.0086 4.75292 5.11238
1 4.75292 1.5809 11.7234
1 1.5809 7.83654 5.11238
1 7.83654 11.0086 11.7234
1 10.1088 10.1088 3.30552
1 2.48067 10.1088 9.91657
1 2.48067 2.48067 3.30552
1 10.1088 2.48067 9.91657
1 2.48067 10.1088 3.30552
1 10.1088 10.1088 9.91657
1 10.1088 2.48067 3.30552
1 2.48067 2.48067 9.91657
1 0 1.60471 1.57853
1 10.9848 0 8.18958
1 0 10.9848 1.57853
1 1.60471 0 8.18958
1 0 10.9848 11.6436
1 1.60471 0 5.03252
1 0 1.60471 11.6436
1 10.9848 0 5.03252
96
 Atoms. Timestep: 2000
2 0.590064 8.48586 6.11949
2 4.23741 0.765206 11.702
2 0.44111 5.38793 4.89198
2 7.68794 0.346705 11.3366
2 12.2268 4.34414 8.7201
2 8.71935 0.158567 0.942977
2 12.5127 8.28703 8.89356
2 4.38188 12.7776 2.40482
2 11.1641 8.5564 7.0332
2 3.93551 11.2631 -0.0135324
2 2.15702 4.93223 6.92053
2 8.02713 2.14376 12.7486
2 1.99844 8.24116 7.83649
2 8.11948 11.045 13.5241
2 10.8205 4.33494 5.98316
2 4.86748 2.32243 0.458789
2 11.2095 6.86267 4.56945
2 6.17081 11.7219 12.8691
2 2.50242 6.74366 5.31028
2 5.8005 1.94978 11.424
2 1.7089 6.02888 8.91643
2 6.50244 2.19406 1.60102
2 10.6652 6.02641 8.3334
2 6.30428 11.3134 1.3758
2 9.92878 8.0001 9.30819
2 3.94799 10.3313 2.65438
2 2.56124 3.42133 8.85787
2 9.08737 2.19941 2.13408
2 1.87698 8.34754 10.1815
2 9.02615 9.99975 2.45883
2 10.5534 2.90749 8.28187
2 3.45169 2.2582 2.87866
2 2.23596 3.62683 4.88725
2 8.09352 2.25893 9.76468
2 11.4122 9.55134 4.53663
2 3.59274 10.9153 11.3064
2 11.506 4.07585 3.18499
2 3.50128 3.04144 10.9864
2 1.88969 8.77546 4.30502
2 8.66986 10.8738 11.0301
2 12.3898 10.3107 -0.357353
2 2.1913 12.1388 6.57889
2 0.0293549 1.43507 13.0566
2 10.5456 0.422947 6.0565
2 1.24011 -0.0822292 1.30438
2 12.5703 12.1866 7.84299
2 12.0559 12.5507 12.1868
2 0.107475 0.384062 4.85222
2 11.5535 2.22303 0.957126
2 10.192 10.4072 8.12159
2 1.02939 9.29074 2.39043
2 2.01504 0.792081 9.40652
2 0.785417 1.99649 2.67784
2 2.3687 10.7889 9.28781
2 11.6896 10.0525 1.95069
2 9.95132 0.364179 8.32947
2 0.99846 10.6479 11.0468
2 2.33224 0.767307 4.38493
2 10.5102 1.48354 10.5747
2 10.5218 12.2526 3.67491
2 10.9488 10.1027 11.0793
2 11.6173 1.55811 3.19336
2 12.3608 0.707378 10.1149
2 2.32747 11.1968 3.76469
1 10.8199 7.63979 8.32577
1 4.76854 11.2394 1.5181
1 1.36902 4.65664 8.53814
1 8.09392 1.81444 0.943222
1 1.1256 7.43562 9.34086
1 7.94902 11.1263 1.53905
1 10.915 4.38498 7.73885
1 4.64803 1.5635 2.13016
1 2.06759 5.14894 5.45907
1 7.39269 1.99175 11.3239
1 11.6311 8.15524 5.3337
1 4.35891 12.0789 11.9203
1 11.6195 5.26397 4.59577
1 4.41126 2.28343 12.295
1 2.21006 8.20119 6.12491
1 7.57064 11.7781 12.0281
1 10.5825 10.3588 3.27308
1 2.56248 9.94529 10.3904
1 1.97486 2.47131 3.67631
1 9.82257 1.67794 9.14968
1 2.53877 9.836 3.09217
1 9.52706 9.84981 9.69753
1 10.7289 2.88009 2.15924
1 2.58233 2.06797 9.80948
1 0.143684 1.21474 1.31833
1 10.9699 11.8017 7.3887
1 -0.0236021 9.40232 1.09156
1 1.72873 12.4066 8.35415
1 12.1341 10.9273 11.7242
1 1.63997 12.1338 4.89816
1 11.9588 1.34505 11.5885
1 11.1907 0.741782 4.77077
96
 Atoms. Timestep: 4000
2 -0.377541 7.51921 4.68097
2 5.13658 12.2468 11.8568
2 0.15804 4.98079 3.31143
2 7.96384 12.1978 12.5274
2 0.75554 4.02083 7.17055
2 7.84371 12.4872 1.69238
2 0.420246 7.44167 7.99618
2 4.67039 -0.0611297 0.477592
2 10.7788 7.34002 6.38799
2 4.06452 10.8023 13.2957
2 2.06238 5.14865 5.41175
2 8.92832 1.01282 0.107757
2 1.65158 8.62083 5.53501
2 7.4776 10.2933 0.330262
2 11.5429 4.34343 5.73313
2 5.36983 1.54566 13.1525
2 10.5941 5.79948 3.74106
2 6.15373 9.86571 12.158
2 1.67852 6.5611 3.30405
2 7.26541 0.58924 11.4531
2 2.04362 6.43956 7.33521
2 6.68194 1.52682 1.63327
2 11.7412 5.40292 7.80558
2 5.44725 10.8998 2.19554
2 10.3051 8.06103 8.84821
2 2.94221 12.0876 1.88768
2 3.24303 3.67977 8.3489
2 8.15473 0.965812 3.37545
2 2.16859 9.84976 8.21708
2 8.50198 10.6338 2.97305
2 10.3359 4.42362 10.2481
2 4.10478 2.42365 1.90286
2 2.5392 3.71954 3.37072
2 9.66788 1.19432 11.2793
2 11.02 9.18843 3.71172
2 3.59082 9.82749 10.4665
2 10.0591 3.53431 3.77461
2 4.53309 2.05928 10.8591
2 1.57674 9.80956 3.37222
2 8.96979 9.67846 11.6992
2 12.5549 10.6197 12.96
2 1.73286 0.266432 7.00083
2 12.2507 0.806768 1.23294
2 11.5014 12.8264 7.2013
2 12.042 3.42636 2.48791
2 11.9347 2.55908 8.32121
2 12.1208 -0.184623 11.698
2 -0.113366 -0.138902 4.85386
2 10.4602 1.64109 3.27473
2 12.7725 0.27158 8.72995
2 -0.0599221 11.4527 1.78707
2 2.44847 1.70936 8.54296
2 0.137265 1.26071 2.91243
2 1.98802 12.0848 9.4291
2 10.9029 9.96818 1.85396
2 10.6195 1.55025 9.55632
2 0.791062 10.7016 11.095
2 2.57857 1.22659 4.07467
2 11.6489 1.86927 12.1706
2 11.0073 11.5196 4.4019
2 11.0874 10.6539 10.8943
2 10.0011 0.984288 5.36096
2 8.02772 3.0386 5.45731
2 1.84307 11.7149 4.22654
1 11.7508 7.1621 7.7639
1 4.28835 11.6409 1.18948
1 2.48218 4.5796 7.38084
1 8.12529 0.875206 1.49257
1 1.9261 8.09919 7.25494
1 7.02388 10.7469 2.04563
1 12.3074 4.06928 7.06818
1 5.1493 1.59811 1.002
1 1.68105 5.08288 3.79805
1 8.82999 0.305261 12.2499
1 11.284 7.52468 4.70681
1 4.60124 10.3504 11.6384
1 11.6984 4.45551 4.19611
1 5.49008 0.749233 11.6878
1 0.94056 8.23589 4.02029
1 7.92572 10.5752 12.5368
1 10.0264 10.4389 3.39124
1 2.40074 10.455 9.80235
1 3.31391 2.44369 3.222
1 10.5365 2.75137 10.8058
1 1.38477 11.4071 2.54215
1 10.1538 9.42521 10.4462
1 9.1476 1.81411 4.21021
1 3.57612 2.38913 9.37083
1 11.84 1.81421 2.48427
1 11.3201 1.01774 8.40938
1 12.1249 10.8004 0.755787
1 1.34352 0.457365 8.64405
1 12.5413 11.255 11.4282
1 1.54715 0.035887 5.16038
1 11.9716 0.81648 13.2837
1 11.2385 -0.16661 5.37385
96
 Atoms. Timestep: 6000
2 12.4587 8.09409 5.36395
2 4.26634 12.3159 10.9568
2 12.3265 4.51805 5.00408
2 8.29677 12.2856 12.0802
2 0.259023 4.42257 7.97116
2 7.47064 12.2235 2.10481
2 0.142962 7.69883 8.85353
2 3.68599 0.900941 1.42167
2 10.4738 7.87287 7.25628
2 3.56023 11.1136 13.3345
2 1.21894 4.45998 5.97243
2 9.08553 0.908867 13.704
2 2.03497 7.34753 6.82582
2 7.11439 10.3948 0.250282
2 11.3135 4.88198 6.83759
2 4.12614 1.37977 12.4816
2 10.3352 6.69645 4.73134
2 6.04501 10.9533 11.372
2 1.16831 6.22133 4.837
2 6.66745 1.29814 11.1341
2 2.16911 5.99586 8.53367
2 9.1775 1.72612 2.23394
2 11.3304 5.92832 8.98741
2 5.34603 11.5491 1.69798
2 10.4272 8.449 9.81771
2 2.67381 10.8799 1.93727
2 2.42561 3.01287 7.25529
2 9.89474 11.7938 1.91305
2 2.14223 8.9471 9.12273
2 8.22952 9.67432 2.45134
2 11.2525 4.23326 10.4752
2 3.9025 5.66166 0.951968
2 2.42603 5.08323 3.63849
2 9.30034 2.13334 11.2566
2 10.1949 9.35063 4.44527
2 3.31778 10.2922 10.8334
2 9.83088 3.5312 4.19258
2 4.42848 1.56443 9.06547
2 2.14466 8.55103 4.41795
2 8.74014 9.69125 11.4004
2 11.8133 7.35494 0.203905
2 1.51467 12.2569 5.78431
2 0.902998 1.76124 0.634195
2 10.7241 12.5114 7.22612
2 1.81977 3.89717 1.98081
2 10.64 2.70675 8.2681
2 0.107859 12.4919 12.2999
2 12.6278 12.426 4.46909
2 11.8784 2.7502 2.59527
2 -0.472201 0.840341 7.83113
2 0.49986 9.16885 1.65543
2 2.35733 1.00524 7.6949
2 1.68937 1.36623 3.2831
2 1.90468 11.5049 8.14414
2 10.4957 9.13922 2.01007
2 11.0394 1.31819 10.0624
2 0.881202 11.5861 10.357
2 4.30957 3.83231 1.65964
2 11.8995 2.02174 12.547
2 9.66117 11.4224 4.3665
2 11.3014 10.6833 11.3278
2 9.8867 0.607674 4.30473
2 0.700001 3.08173 3.6341
2 1.03904 11.121 3.26196
1 11.4286 7.58056 8.63405
1 3.83573 11.7671 1.43407
1 1.75987 4.6193 7.47533
1 9.04472 0.237199 1.65149
1 1.85445 7.65033 8.36641
1 6.99062 10.6084 1.7401
1 11.5138 4.37752 8.43092
1 3.99123 2.40074 0.458327
1 1.11353 4.44835 4.42389
1 8.1854 1.25099 12.0335
1 10.7431 8.2404 5.3842
1 4.41789 10.7427 11.8021
1 10.6342 4.82102 5.06965
1 4.86854 1.1684 10.7613
1 1.21495 7.71313 5.67282
1 7.59686 10.7743 12.165
1 10.0184 10.2183 3.10934
1 2.33824 10.7055 9.53977
1 3.32063 4.85781 2.15643
1 11.1126 2.67183 11.3459
1 1.59339 9.5929 2.80148
1 10.1367 9.92481 10.8004
1 10.4148 2.13324 3.308
1 3.50194 2.15291 8.01147
1 0.546831 2.49946 2.14062
1 10.9389 1.12593 8.52739
1 12.062 8.99655 0.829918
1 1.04889 0.0806034 7.28773
1 -0.205788 11.095 11.5119
1 1.37035 12.651 4.20625
1 12.8901 0.873634 13.2146
1 10.8169 -0.729593 5.50411
96
 Atoms. Timestep: 8000
2 11.3837 7.90322 5.1117
2 5.04867 -0.199764 10.5455
2 11.5443 5.95936 5.52043
2 8.08905 11.5928 11.8353
2 0.956197 3.7025 7.13442
2 6.77436 11.6385 3.12967
2 12.3946 7.1576 7.94463
2 4.053 0.0126013 1.90276
2 9.99754 8.35874 7.13377
2 3.48471 10.9764 12.7783
2 2.86603 4.73716 5.58871
2 8.40686 0.341487 1.09328
2 1.20447 7.22599 6.39922
2 7.14186 9.62118 0.94975
2 9.0278 4.68658 7.08077
2 5.72714 1.29413 13.0492
2 9.34683 6.06895 5.68959
2 5.58843 10.3019 12.6267
2 1.03966 5.55688 4.54737
2 7.53021 1.17349 11.2718
2 2.72421 6.37925 7.98572
2 8.57771 1.57396 2.64702
2 10.1983 6.69824 8.62446
2 4.87252 10.4945 2.43673
2 10.8977 8.01902 10.4177
2 2.23349 10.0141 1.57473
2 3.43828 3.94675 8.58363
2 9.33626 11.9069 3.29217
2 1.81779 9.08713 8.9071
2 8.18137 9.61778 3.17896
2 10.1531 3.98502 9.32429
2 3.23036 5.24301 12.7503
2 2.58427 5.23399 2.46184
2 9.54754 1.39623 10.7715
2 9.5604 9.18762 4.98796
2 3.75346 10.2061 10.1357
2 10.4736 3.28937 4.54334
2 5.33482 2.63428 10.1365
2 1.66899 7.85825 3.85393
2 8.26337 9.00343 11.6862
2 10.3591 9.05442 13.1469
2 2.58183 0.256861 5.72941
2 0.973977 2.05568 0.354722
2 11.3201 1.40314 6.55224
2 1.20865 3.82652 1.48503
2 10.8572 3.35801 6.76523
2 10.6839 0.378912 12.1766
2 0.31254 12.0319 4.1903
2 11.6077 2.52179 2.33916
2 0.786394 1.5498 7.0712
2 0.322981 9.47228 1.36215
2 3.82371 1.78218 7.51682
2 1.48654 1.07192 3.21096
2 2.20928 11.5252 8.37745
2 10.0644 9.7967 2.16769
2 11.5027 1.89353 9.10315
2 1.18328 11.1798 11.0251
2 4.18564 3.03591 1.67146
2 12.1356 2.04254 11.2482
2 10.8701 11.2658 4.9574
2 11.3982 10.786 12.4822
2 10.8128 0.802862 3.3411
2 1.28816 3.10942 3.94279
2 1.77089 10.6593 3.45537
1 11.0344 8.15333 8.57966
1 3.7873 11.1593 1.41123
1 2.69571 4.67414 7.31147
1 8.00346 0.0112792 2.75907
1 1.63189 7.62936 8.12113
1 6.53551 10.0906 2.74931
1 9.31274 5.30381 8.68194
1 4.672 1.58651 1.23889
1 2.23213 4.7356 4.17437
1 8.96931 0.890332 12.3753
1 9.8383 7.96894 5.68139
1 4.3775 10.9839 11.5029
1 10.3327 4.45944 5.62415
1 6.01093 1.30312 11.4034
1 0.426147 7.11551 4.77505
1 7.4051 10.0819 12.6853
1 9.76224 10.3832 3.75087
1 2.23999 10.3888 9.61841
1 2.69178 4.3492 1.10539
1 10.5503 2.79152 10.4469
1 1.51547 9.23841 2.8069
1 9.94858 8.68477 11.5877
1 10.0935 2.45346 3.07505
1 4.56833 2.71914 8.66746
1 0.682066 2.36072 2.2739
1 12.1498 2.46854 7.85021
1 11.2521 10.0492 1.02861
1 2.35415 0.827748 7.30882
1 12.3683 11.7548 11.7856
1 1.9299 12.1541 3.86787
1 1.04763 1.34585 11.9226
1 11.3905 0.309812 5.26985
96
 Atoms. Timestep: 10000
2 11.6679 8.0086 6.17265
2 4.6429 12.0773 11.1716
2 11.3274 6.32241 5.02616
2 7.83613 10.9873 10.9913
2 1.58539 3.66303 7.9394
2 7.65262 12.2475 1.39571
2 0.374477 7.1409 8.9626
2 4.49772 1.20631 1.0213
2 10.3305 9.27682 8.23654
2 4.31 10.447 12.5101
2 3.35349 3.76455 6.48099
2 9.32214 1.04279 12.7233
2 2.00108 6.54356 6.73279
2 7.66433 10.2372 0.565337
2 8.66215 5.669 6.91377
2 4.17444 2.48233 11.5659
2 9.22728 7.61322 6.52035
2 6.20458 9.61256 11.1008
2 1.82495 5.78322 4.88372
2 7.10304 1.34768 11.6917
2 3.15698 5.62662 8.52412
2 10.0164 2.76019 2.19652
2 9.89383 7.04078 9.00384
2 5.33966 10.7021 2.33084
2 11.0605 7.44405 10.7329
2 3.09516 9.95468 2.1048
2 4.63502 3.48386 8.63097
2 9.87575 12.0628 2.73516
2 1.65999 8.63035 8.32599
2 7.99385 11.3516 3.15725
2 9.35395 4.10849 9.33209
2 2.76158 0.348726 3.79237
2 3.12023 2.88423 4.70332
2 8.7799 1.68808 9.87464
2 9.20962 9.75633 5.46186
2 3.14296 9.8627 10.3692
2 9.49871 5.23702 4.28883
2 5.73829 1.89754 9.43512
2 1.90316 8.0725 4.62906
2 8.68261 8.21454 11.2776
2 10.1851 7.59102 0.999904
2 1.63754 11.793 5.66384
2 12.0587 2.15956 12.7417
2 11.6492 1.61244 6.42402
2 1.99546 3.17994 0.884419
2 0.606251 3.6292 5.98616
2 9.79345 10.9224 10.8489
2 12.2842 0.958413 4.59593
2 11.9875 4.24755 2.68879
2 1.21557 1.65473 8.13301
2 0.608391 8.31923 2.51514
2 3.95727 1.45252 6.68604
2 1.25181 1.21434 2.53946
2 1.97418 11.611 8.29522
2 9.92569 9.6254 2.86258
2 10.272 2.75397 7.90588
2 0.737649 10.783 10.4451
2 4.25345 3.26949 2.14852
2 11.1409 3.04218 10.0032
2 10.0677 11.7855 4.71315
2 11.4808 9.53771 0.489475
2 10.6686 3.07089 4.40956
2 0.861786 3.09232 4.04051
2 1.44189 10.3281 4.1251
1 10.8529 8.29177 9.33598
1 4.02261 11.2979 1.562
1 3.24483 4.14584 8.09783
1 8.99299 1.26245 1.86838
1 2.26464 7.08192 8.5467
1 6.89555 10.7716 2.14144
1 8.9938 5.41169 8.5775
1 3.59185 2.80531 12.8864
1 1.8402 4.0905 5.14026
1 8.51846 0.498063 11.2202
1 10.2669 8.87281 6.50968
1 4.73615 10.3829 10.9218
1 9.38242 6.32199 5.51859
1 5.50782 1.68839 11.0905
1 1.07982 7.22395 5.52501
1 7.90898 9.53461 11.5016
1 9.28719 10.5844 4.10784
1 1.92974 10.2446 9.29524
1 3.57603 1.74169 3.14966
1 9.84808 2.60427 9.39708
1 1.99727 9.1555 3.2106
1 9.94897 7.49057 11.891
1 10.203 4.13305 3.22572
1 5.57643 2.22773 7.91683
1 0.84901 2.81129 2.05052
1 12.0849 2.87496 7.47149
1 11.0721 8.55575 1.86409
1 2.25706 0.580058 6.97177
1 11.265 10.4114 11.3865
1 1.25354 11.8106 3.89319
1 0.343434 2.48807 11.2227
1 10.7729 1.31925 4.83231
96
 Atoms. Timestep: 12000
2 11.7547 7.7729 4.5836
2 4.6517 12.1487 11.4595
2 11.5877 5.50941 5.25195
2 8.16741 11.0748 11.0506
2 0.608461 3.77332 7.17055
2 7.79646 12.848 2.31121
2 12.3709 7.35882 8.17698
2 3.12684 12.0767 1.72808
2 10.0263 8.29574 6.78633
2 4.08605 9.94221 0.262333
2 2.50329 4.02088 6.29855
2 8.98679 1.04236 12.744
2 1.30686 6.82521 6.66397
2 7.7696 10.236 0.674396
2 9.09615 4.80587 6.46581
2 4.33555 1.0875 0.333825
2 9.59886 7.18875 4.95802
2 6.20107 10.4863 12.6203
2 1.76824 5.61659 4.58406
2 6.99755 0.634688 11.9007
2 1.94903 5.75088 8.46272
2 8.85446 2.59412 1.79835
2 9.92309 6.66392 8.1235
2 5.5612 10.6717 2.50056
2 10.5622 9.21065 10.143
2 3.03959 9.54618 2.43879
2 3.13489 3.43902 8.91039
2 6.54561 1.93497 13.4419
2 2.0423 8.64616 9.25289
2 8.58934 10.9568 3.06552
2 8.5101 3.81237 8.91163
2 4.06777 0.518122 5.47128
2 3.76619 3.39132 4.63199
2 9.2111 1.28617 9.97786
2 10.562 9.95424 4.26443
2 2.971 10.1292 11.1915
2 9.39619 4.62789 3.68407
2 4.80686 1.99682 10.8467
2 1.37695 7.99657 4.33193
2 8.24082 8.74589 11.5763
2 11.2191 8.2892 12.5648
2 2.64152 12.2083 6.83728
2 0.0489637 3.20534 0.416257
2 11.6912 2.22021 5.43961
2 2.42771 2.45779 1.09619
2 0.863608 2.81818 4.26436
2 10.1951 11.1816 10.9507
2 1.59602 0.65402 4.51627
2 11.9103 3.59055 2.9053
2 0.793741 1.2765 7.89004
2 0.886988 9.14107 1.94149
2 3.18312 0.777607 9.16068
2 12.9115 1.77596 2.45647
2 2.4988 11.2346 8.9104
2 11.044 10.3857 2.08376
2 11.0879 2.92929 8.73985
2 0.864202 10.5134 10.9262
2 4.38961 1.68758 2.93714
2 10.3404 2.86256 10.9902
2 10.8596 0.407707 4.03264
2 11.4313 10.2158 13.0793
2 11.0478 4.26403 0.920315
2 1.73305 4.16471 3.03336
2 2.72113 10.2918 4.37454
1 10.7092 8.19827 8.49441
1 4.06843 10.6854 1.82723
1 2.13243 4.32917 7.79737
1 8.03327 1.3785 1.17255
1 1.36237 7.32351 8.12356
1 7.20747 11.0435 1.98582
1 8.77232 5.34034 8.09329
1 3.53808 1.14128 1.70307
1 2.15225 3.80887 4.37103
1 8.78264 0.127419 11.3527
1 10.4445 8.59718 5.21902
1 4.34491 10.4425 11.9507
1 9.8134 5.35354 5.11542
1 5.42953 1.13707 12.2654
1 0.482669 6.53016 5.18247
1 7.81689 9.98462 12.2814
1 10.2441 11.315 3.39577
1 2.11973 10.1314 9.90114
1 4.60134 2.00932 4.5939
1 9.74128 2.59837 9.28426
1 1.78592 9.45341 3.23236
1 9.91328 8.37335 11.467
1 10.0854 3.76626 2.13084
1 4.36018 2.04546 9.42254
1 0.884361 3.20127 1.88419
1 12.2537 2.17921 7.20505
1 12.065 9.07622 0.968552
1 1.91743 0.276647 8.39202
1 11.6086 10.7869 11.6398
1 2.75229 11.7974 5.11114
1 11.2415 3.75726 12.1886
1 12.4681 1.16686 4.07305
96
 Atoms. Timestep: 14000
2 12.115 9.88479 5.65714
2 4.53583 11.9797 11.1333
2 12.2294 6.11467 4.58729
2 8.44443 11.5713 11.4132
2 1.91243 2.42051 8.4521
2 6.72109 1.2601 1.68977
2 11.8824 7.44512 9.34605
2 3.52996 11.9312 0.791991
2 10.2589 8.49361 7.18343
2 4.90137 10.2116 12.8921
2 3.50746 4.05598 10.2354
2 7.87759 1.62125 12.3551
2 0.907072 6.90089 7.00902
2 7.60823 11.0193 0.979076
2 10.2629 4.86476 5.42437
2 1.76921 1.24623 12.5878
2 10.3133 7.57272 4.50732
2 6.57723 9.81448 11.6347
2 2.1263 4.84765 5.43708
2 6.24149 1.37597 10.3814
2 1.17756 5.47691 9.28089
2 7.64406 3.7082 1.57136
2 10.3068 6.07744 8.2389
2 5.51527 11.249 2.52651
2 9.87477 7.79443 10.8087
2 3.6641 9.09675 2.03314
2 1.46033 2.92504 10.7063
2 5.62181 2.23735 12.614
2 2.02561 8.14381 9.28551
2 8.67224 11.0557 2.74215
2 9.71591 3.48104 7.97719
2 3.99688 12.5241 4.90976
2 3.2849 2.83091 4.09805
2 9.24156 1.79017 10.0245
2 9.81244 9.92589 4.4399
2 3.52514 9.58388 11.0523
2 9.48819 5.40986 3.01491
2 3.42083 1.62766 11.0698
2 2.19566 7.32513 4.53919
2 8.96115 9.50536 12.0122
2 11.9229 8.95266 12.7096
2 2.96281 11.2134 6.36287
2 11.8979 3.43515 0.406454
2 12.2996 2.0856 5.45991
2 2.36295 11.8704 2.82917
2 1.82328 2.92986 6.24499
2 10.5346 0.616425 11.8145
2 1.23096 0.402566 4.49915
2 10.6747 3.87831 2.1538
2 1.72113 0.419045 7.44061
2 1.26701 8.86266 1.91425
2 2.27578 0.512353 9.50235
2 0.175478 2.04445 2.64582
2 2.44109 10.1596 8.72327
2 11.0845 10.1383 1.94801
2 12.0585 2.07191 8.3152
2 0.378043 10.6874 10.8041
2 5.67737 1.06183 5.69858
2 11.2471 3.67433 10.2366
2 10.4191 0.319993 3.3215
2 0.537089 11.6044 0.605865
2 10.0817 4.7013 0.248781
2 1.25886 4.13258 2.98306
2 3.30772 9.94826 4.02778
1 10.3167 7.61642 8.82703
1 4.46027 10.6615 1.41616
1 2.01163 4.03288 9.48372
1 7.03493 2.34382 0.602656
1 1.09806 7.05897 8.65749
1 6.95233 11.7698 2.27217
1 9.9716 4.83616 7.06806
1 1.97821 0.290687 1.19509
1 2.00595 3.5757 4.58789
1 9.02003 0.890709 11.1047
1 10.7702 8.69832 5.58688
1 5.04068 10.4369 10.8087
1 10.3909 5.8553 4.31206
1 5.03141 1.35606 11.2922
1 1.35326 6.38702 5.37878
1 7.75572 10.5114 12.4258
1 10.3486 10.9719 3.13725
1 1.95926 9.81996 10.1654
1 4.62768 1.97155 4.59071
1 10.4747 2.44804 8.96452
1 2.45163 8.45985 3.10284
1 10.4196 8.54575 12.075
1 9.14325 4.62091 1.65001
1 1.8771 1.42904 10.8967
1 0.205164 3.66584 1.93701
1 1.05038 1.82909 7.26922
1 0.200422 9.87981 0.965076
1 2.6893 11.8246 8.16003
1 11.4744 11.8073 10.7253
1 2.58313 11.3949 4.64885
1 11.1691 4.40336 11.9645
1 11.99 1.18284 3.75699
96
 Atoms. Timestep: 16000
2 12.27 8.8891 6.58614
2 6.02068 11.6191 11.3977
2 12.2538 7.06498 4.49032
2 8.86461 10.5435 12.2772
2 1.36599 5.01452 7.07089
2 7.13766 0.483129 1.69166
2 0.52683 7.70316 9.11327
2 2.05402 11.4324 1.05856
2 10.2222 7.57725 7.59962
2 4.58787 10.2319 0.438136
2 1.79862 2.32369 6.76885
2 8.92023 0.549209 0.639466
2 2.40254 7.47716 6.41441
2 7.46244 9.46826 1.54674
2 8.52368 4.48051 8.03222
2 2.57857 2.36089 10.0123
2 10.1231 7.35737 5.53986
2 6.60201 9.134 11.6179
2 2.36533 5.53773 4.02658
2 7.98371 1.5796 9.9271
2 2.5154 7.21604 8.42673
2 7.73172 3.3715 1.92546
2 10.9912 5.72006 8.72657
2 5.06368 11.4456 2.65388
2 10.2354 7.51377 10.4644
2 3.02409 9.66562 1.6524
2 3.88335 4.54498 8.80687
2 6.03326 1.56837 12.6378
2 2.00283 9.65638 8.35724
2 7.97621 11.0346 3.60458
2 10.2329 2.96313 9.43375
2 3.20457 1.32842 4.02311
2 3.12395 3.409 2.33714
2 9.56955 0.855676 11.2921
2 9.47208 9.59096 4.91298
2 4.34118 10.4617 10.3303
2 9.49597 5.25851 4.1023
2 5.4414 2.45116 9.92839
2 2.04642 8.25375 4.24525
2 8.61949 7.75188 12.3319
2 10.7595 7.24183 1.04387
2 2.43336 12.2859 6.08392
2 11.1164 2.59712 0.644671
2 11.6303 2.56724 5.68429
2 0.987416 11.6424 2.91894
2 1.62338 3.67513 5.03565
2 11.4577 11.8845 0.463587
2 0.577544 12.1143 4.96837
2 10.0702 2.82977 2.88407
2 11.6166 3.36706 7.63504
2 1.03305 8.05186 2.21908
2 4.35136 2.03811 8.19445
2 11.7455 1.75574 3.11885
2 3.5418 12.2001 8.5052
2 10.7669 7.819 3.41717
2 11.7466 1.44186 9.78709
2 2.287 11.9724 10.5272
2 3.6327 0.798746 1.46872
2 8.34878 2.66678 12.073
2 10.2151 0.464358 4.97585
2 12.0798 9.83371 1.58569
2 10.1632 4.94691 11.4684
2 0.437359 3.69219 2.94836
2 2.83366 10.4448 3.76515
1 10.9382 7.28596 9.01921
1 3.64171 11.1528 1.57842
1 2.4847 5.5745 8.39925
1 7.75455 1.73906 0.88729
1 1.62925 8.16398 7.75507
1 6.91645 11.0421 2.31756
1 10.2492 4.28566 8.63445
1 0.491338 11.4349 1.53693
1 2.03753 4.2387 3.36083
1 10.0596 11.8718 12.5443
1 10.5306 8.7308 6.15654
1 5.48036 10.1662 11.6773
1 10.7642 6.49441 4.4167
1 6.15069 1.10763 10.6471
1 1.86939 6.92432 4.91756
1 8.05257 9.25412 12.6568
1 9.12316 11.1977 4.69251
1 2.95821 10.7944 9.26994
1 3.41454 1.97706 2.60972
1 10.0717 1.3775 9.91148
1 2.17386 9.04718 2.92449
1 10.0254 6.70963 12.1734
1 8.88346 3.8586 3.16058
1 3.88101 3.11106 9.52381
1 11.5228 2.74601 2.14638
1 0.889978 3.57153 6.45872
1 11.4665 8.36754 2.1187
1 3.21511 1.24284 7.08509
1 1.3321 1.27909 10.5573
1 2.0833 11.8965 4.53036
1 10.0268 3.22605 11.8448
1 11.5053 1.35817 4.58515
96
 Atoms. Timestep: 18000
2 0.854998 9.20121 7.46468
2 6.89454 11.3174 11.1361
2 11.4933 6.22404 4.68557
2 9.35806 10.6024 11.3539
2 1.19749 4.36875 8.39765
2 6.0658 0.993213 3.16976
2 12.0659 10.8208 6.15923
2 2.48788 9.8812 0.868034
2 9.89003 9.46274 8.11276
2 4.71035 10.1615 12.0708
2 1.43405 1.79479 7.80981
2 9.94136 1.62963 12.1333
2 1.08388 6.91217 6.50924
2 8.26408 10.6407 1.56375
2 9.70939 5.61629 6.06468
2 2.56252 1.18465 10.7364
2 9.11911 8.05173 6.25552
2 7.2347 8.94087 12.0224
2 1.56831 4.82808 6.47306
2 7.85837 2.10876 10.7667
2 1.67393 6.55002 9.05901
2 8.67479 3.76821 1.6766
2 9.19742 6.33977 8.08974
2 5.9777 10.718 1.89365
2 10.1893 7.72215 9.82872
2 3.52661 8.78911 2.19006
2 3.20546 4.14724 10.0804
2 7.1772 2.31296 12.7181
2 2.61277 8.39385 8.69685
2 7.97635 11.0298 3.66033
2 8.97768 3.85851 8.49688
2 3.21827 0.677881 4.62582
2 4.14592 2.90719 3.06375
2 10.0708 1.40661 9.9803
2 9.85551 10.5417 6.06257
2 4.84795 9.20248 10.0395
2 8.6505 6.38619 3.38957
2 5.06264 2.40676 11.466
2 2.05759 7.37426 4.73674
2 9.2887 8.38937 11.6749
2 10.4132 7.40731 1.09317
2 2.5695 11.1873 6.58667
2 11.1528 3.34256 12.3961
2 11.5412 2.69243 5.33447
2 1.43354 11.3952 2.81329
2 2.28371 4.67126 4.00947
2 11.2262 11.6963 12.6807
2 11.9141 0.66858 4.93169
2 10.8304 4.87255 2.04336
2 10.8278 3.44698 7.3022
2 0.910005 7.38858 2.78715
2 3.95859 1.76709 8.32369
2 10.6635 1.95305 2.86825
2 3.60989 11.1716 8.30364
2 9.92585 7.99964 3.69769
2 12.0022 12.105 10.4025
2 2.36284 10.1211 10.4524
2 3.4401 11.4638 2.47281
2 10.5577 3.36232 9.66936
2 9.1275 1.25182 5.16335
2 11.4224 9.7295 1.58236
2 10.2769 5.586 10.8182
2 1.37319 3.26518 1.55421
2 1.93554 9.75953 4.24213
1 9.51944 7.98085 8.09707
1 4.1561 10.0658 1.45225
1 1.91632 5.02268 9.97981
1 8.73992 2.68674 0.633151
1 1.43677 7.76603 7.96576
1 7.15151 11.6648 2.30914
1 9.88892 4.76496 7.56921
1 0.707678 10.8154 1.43961
1 2.58532 3.54976 2.86171
1 10.4326 11.923 11.2047
1 11.0296 10.1869 7.27044
1 6.12148 9.80307 11.1619
1 9.66027 6.95695 4.92334
1 6.437 1.59358 11.5977
1 1.31356 5.88467 5.14236
1 8.56076 9.68498 12.5397
1 8.46858 11.6024 5.37568
1 3.72247 9.65913 9.21478
1 4.30842 0.947752 3.46653
1 8.89433 2.61425 9.59585
1 2.06622 8.28524 3.32326
1 10.4449 7.20282 11.4894
1 9.15504 5.32397 2.03367
1 3.82599 2.30147 10.069
1 11.2835 3.19872 1.72795
1 0.626831 3.00596 6.95909
1 11.0844 8.09951 2.33995
1 2.61632 0.639499 7.67585
1 1.68586 11.5417 11.0253
1 1.67409 11.3439 5.08644
1 11.3692 4.45303 10.8008
1 10.724 1.75075 4.46791
96
 Atoms. Timestep: 20000
2 11.816 8.45162 7.60913
2 6.2612 0.562293 11.2218
2 12.052 6.48785 5.0514
2 9.33285 11.5403 11.3299
2 0.551165 3.95125 7.93144
2 6.66574 0.554657 2.1652
2 11.5229 9.48141 5.8331
2 2.2864 11.7029 1.00912
2 9.91532 8.00975 8.01691
2 4.2019 10.5807 12.2876
2 1.96262 2.45946 6.58776
2 9.03909 2.09586 12.4396
2 1.49948 6.50812 6.64519
2 8.09425 10.3632 1.26999
2 9.63503 5.84812 5.94894
2 2.02331 1.11804 10.5482
2 10.028 7.85417 5.74931
2 6.8019 10.5213 12.0238
2 0.378509 4.2772 5.21418
2 7.69914 2.91756 10.8268
2 1.59547 6.16451 8.87215
2 8.47925 4.22475 1.31373
2 10.4561 5.52595 8.45996
2 5.41825 10.7303 1.8203
2 9.7881 7.46457 10.9194
2 3.34817 9.46712 2.16853
2 2.7624 3.71175 9.28309
2 6.36874 2.74054 12.5685
2 2.49552 8.67877 8.22742
2 7.65944 11.4647 3.81136
2 8.96445 3.96988 8.48816
2 1.05704 10.063 7.22875
2 4.24691 2.29305 2.79429
2 9.57308 1.92384 10.537
2 9.32168 10.5094 6.50956
2 4.48341 10.0469 10.1175
2 9.86187 5.91333 3.03769
2 4.58452 2.28835 10.5753
2 2.23066 6.90522 4.31579
2 9.58251 8.91158 12.3013
2 11.429 7.84624 1.00893
2 1.86043 11.8145 5.88669
2 0.810766 3.10705 12.9895
2 11.676 1.73062 5.82141
2 0.906519 0.875103 1.93334
2 3.05517 4.88412 4.79236
2 11.2224 12.2186 0.556758
2 12.2542 11.4291 4.62097
2 11.3183 3.26349 2.61937
2 10.5328 3.73512 6.20521
2 1.34808 8.05804 3.04531
2 3.56358 1.39103 8.28831
2 0.417474 1.85571 3.70979
2 3.31032 11.4321 7.71485
2 10.9874 7.71162 3.7331
2 11.3198 0.424507 10.9842
2 1.81796 10.7422 10.0404
2 4.03807 0.263805 1.64336
2 10.7464 4.15376 10.648
2 9.69082 0.426555 4.53076
2 11.8176 9.86473 1.7805
2 10.07 6.09103 0.996434
2 1.97525 3.16403 2.9972
2 2.42341 9.5616 5.0781
1 9.91028 7.24493 9.31895
1 3.64463 10.8172 1.26403
1 1.34561 4.47279 9.16762
1 7.75794 2.87875 0.83106
1 1.41457 7.55846 8.00646
1 7.01672 11.1206 2.40592
1 9.68389 4.67108 7.1582
1 0.389113 11.325 1.22233
1 3.42355 3.42977 3.82401
1 10.1478 0.894612 11.6386
1 10.2993 9.14872 7.01083
1 5.2784 11.0534 11.1917
1 10.5941 6.3774 4.73356
1 6.09363 2.0829 10.9777
1 1.52052 5.76742 5.25949
1 8.53363 10.1041 12.1008
1 8.8316 11.365 5.02974
1 3.00983 9.95211 9.12579
1 5.33063 1.31397 1.89494
1 9.28269 3.42404 9.99401
1 2.96964 8.39308 3.7205
1 10.1842 7.37834 12.5794
1 10.0944 4.56194 1.74118
1 3.13458 2.15705 9.81601
1 0.72947 2.46866 1.92448
1 12.252 3.13927 6.33084
1 11.8231 8.64594 2.70741
1 2.78069 0.917367 6.82723
1 0.930802 12.029 10.0392
1 0.909405 10.3742 5.52129
1 12.082 3.75843 11.3071
1 11.3 0.633081 4.50332
96
 Atoms. Timestep: 22000
2 11.704 8.22187 7.29032
2 5.65726 0.536378 11.2882
2 0.440979 6.62615 5.24771
2 9.47123 10.321 11.6791
2 0.602772 4.33883 8.76825
2 7.392 1.10136 1.48738
2 11.8112 10.0529 6.52492
2 2.51581 10.3969 1.06792
2 9.75102 8.93999 8.16296
2 4.84804 10.8193 12.78
2 1.49948 2.24991 7.1069
2 9.277 1.46876 12.3275
2 1.95044 6.79806 7.01462
2 8.05532 9.96235 0.804732
2 10.159 6.47886 6.27988
2 2.40566 1.72294 9.99932
2 10.0421 8.23672 5.07121
2 7.09211 10.2905 10.3184
2 1.52187 4.45816 6.37194
2 7.25958 2.74926 9.61339
2 1.89173 6.52558 9.13483
2 8.29167 3.36237 2.3634
2 10.1373 6.27923 8.33334
2 5.71772 10.8151 2.24899
2 11.3882 7.25962 10.6646
2 3.64688 8.74653 2.83349
2 2.97364 4.43255 9.96364
2 7.64991 2.7275 12.1068
2 2.1615 8.76721 8.99606
2 8.10115 11.2418 3.67177
2 8.86309 4.12062 8.32205
2 2.27529 9.91986 7.31009
2 3.63578 2.65656 3.98397
2 9.63074 1.02733 9.82575
2 9.37663 10.2179 5.33373
2 4.32427 10.2884 9.94533
2 9.44218 5.81014 4.06632
2 4.69384 2.73345 10.411
2 2.51003 7.13355 4.93538
2 8.83471 8.31624 10.4256
2 10.9243 6.73659 0.812204
2 2.62983 0.762956 5.46247
2 10.0502 3.16119 0.749254
2 11.543 1.96736 6.29371
2 12.2338 1.01076 1.33453
2 2.55356 5.28387 4.0929
2 11.1851 10.892 12.5547
2 0.696282 11.7443 4.79916
2 11.0245 4.26006 2.83174
2 11.0299 4.37081 7.33934
2 1.09581 7.75206 2.78026
2 3.54365 2.22386 7.90836
2 11.4244 2.3663 3.63424
2 3.66711 11.5311 8.15631
2 10.9976 7.69355 3.20404
2 11.7193 0.66824 10.9518
2 1.56947 11.0436 9.09025
2 4.02761 11.6991 3.50542
2 9.93577 3.29382 10.2213
2 10.0274 1.09562 4.66073
2 0.565591 9.67062 1.56761
2 0.372371 4.83711 11.3078
2 1.52934 3.42751 2.24014
2 1.92542 9.55873 4.66701
1 9.94611 7.62271 9.22906
1 4.10815 10.4111 2.00761
1 1.54486 5.1342 10.0075
1 8.55709 2.2559 0.892255
1 1.2224 7.71286 8.14022
1 7.35392 11.0341 2.01116
1 9.47063 5.2445 7.23988
1 0.997557 11.2515 1.24873
1 2.95188 3.84918 3.24216
1 10.166 12.054 11.4656
1 10.3296 9.20521 6.47953
1 5.51581 10.8888 11.043
1 10.7264 6.78657 4.70811
1 6.27071 2.23534 10.8958
1 1.83871 5.81568 5.50413
1 8.27264 9.1578 11.5245
1 8.92559 11.5959 4.85121
1 2.98735 10.1844 8.7966
1 2.99005 1.00597 3.97389
1 8.98768 2.55569 9.23589
1 2.38467 8.04847 3.61202
1 11.2502 5.97178 11.9874
1 9.2893 4.46147 3.10561
1 3.55874 2.75851 9.3615
1 11.638 2.83373 1.90538
1 12.2792 3.32545 7.25764
1 11.5837 8.22328 1.69279
1 2.81368 0.989974 7.22171
1 0.914355 0.653476 9.80047
1 1.23883 10.5405 6.08408
1 10.0375 3.92817 11.6349
1 11.7786 1.29573 4.74443
96
 Atoms. Timestep: 24000
2 11.8045 8.84852 7.66112