96
 Atoms. Timestep: 0
2 0 7.95642 4.74695
2 4.63304 0 11.358
2 0 4.63304 4.74695
2 7.95642 0 11.358
2 0 4.63304 8.47514
2 7.95642 0 1.8641
2 0 7.95642 8.47514
2 4.63304 0 1.8641
2 10.7421 8.43088 6.61105
2 4.15858 10.7421 0
2 1.84736 4.15858 6.61105
2 8.43088 1.84736 0
2 1.84736 8.43088 6.61105
2 8.43088 10.7421 0
2 10.7421 4.15858 6.61105
2 4.15858 1.84736 0
2 10.5201 6.29473 5.04003
2 6.29473 10.5201 11.6511
2 2.06934 6.29473 5.04003
2 6.29473 2.06934 11.6511
2 2.06934 6.29473 8.18207
2 6.29473 2.06934 1.57102
2 10.5201 6.29473 8.18207
2 6.29473 10.5201 1.57102
2 10.1594 8.65935 9.20274
2 3.93011 10.1594 2.59169
2 2.43004 3.93011 9.20274
2 8.65935 2.43004 2.59169
2 2.43004 8.65935 9.20274
2 8.65935 10.1594 2.59169
2 10.1594 3.93011 9.20274
2 3.93011 2.43004 2.59169
2 2.43004 3.93011 4.01936
2 8.65935 2.43004 10.6304
2 10.1594 8.65935 4.01936
2 3.93011 10.1594 10.6304
2 10.1594 3.93011 4.01936
2 3.93011 2.43004 10.6304
2 2.43004 8.65935 4.01936
2 8.65935 10.1594 10.6304
2 0 10.703 0
2 1.88643 0 6.61105
2 0 1.88643 0
2 10.703 0 6.61105
2 0 0 1.872
2 0 0 8.48305
2 0 0 11.3501
2 0 0 4.73905
2 11.2706 2.31295 2.18973
2 10.2765 11.2706 8.80078
2 1.31887 10.2765 2.18973
2 2.31295 1.31887 8.80078
2 1.31887 2.31295 2.18973
2 2.31295 11.2706 8.80078
2 11.2706 10.2765 2.18973
2 10.2765 1.31887 8.80078
2 1.31887 10.2765 11.0324
2 2.31295 1.31887 4.42131
2 11.2706 2.31295 11.0324
2 10.2765 11.2706 4.42131
2 11.2706 10.2765 11.0324
2 10.2765 1.31887 4.42131
2 1.31887 2.31295 11.0324
2 2.31295 11.2706 4.42131
1 11.0086 7.83654 8.10972
1 4.75292 11.0086 1.49867
1 1.5809 4.75292 8.10972
1 7.83654 1.5809 1.49867
1 1.5809 7.83654 8.10972
1 7.83654 11.0086 1.49867
1 11.0086 4.75292 8.10972
1 4.75292 1.5809 1.49867
1 1.5809 4.75292 5.11238
1 7.83654 1.5809 11.7234
1 11.0086 7.83654 5.11238
1 4.75292 11.0086 11.7234
1 11.0086 4.75292 5.11238
1 4.75292 1.5809 11.7234
1 1.5809 7.83654 5.11238
1 7.83654 11.0086 11.7234
1 10.1088 10.1088 3.30552
1 2.48067 10.1088 9.91657
1 2.48067 2.48067 3.30552
1 10.1088 2.48067 9.91657
1 2.48067 10.1088 3.30552
1 10.1088 10.1088 9.91657
1 10.1088 2.48067 3.30552
1 2.48067 2.48067 9.91657
1 0 1.60471 1.57853
1 10.9848 0 8.18958
1 0 10.9848 1.57853
1 1.60471 0 8.18958
1 0 10.9848 11.6436
1 1.60471 0 5.03252
1 0 1.60471 11.6436
1 10.9848 0 5.03252
96
 Atoms. Timestep: 2000
2 0.453933 8.61723 5.25291
2 3.85838 0.369817 12.6704
2 12.2437 3.51823 4.03733
2 7.89065 12.3718 12.0471
2 12.3612 4.23514 8.39471
2 8.82673 0.211114 2.07284
2 0.530013 7.59639 7.97889
2 4.86337 0.689583 2.46655
2 11.1396 8.95764 7.2937
2 4.42792 11.5783 0.163571
2 0.781982 3.97319 5.74008
2 8.34664 1.6683 0.0539193
2 2.27249 7.58087 6.39488
2 7.66882 10.8973 0.332668
2 9.9359 5.49303 6.87349
2 4.39716 2.71011 0.335467
2 11.8639 7.22249 5.40377
2 5.5822 10.5023 11.9675
2 1.253 6.23418 3.75432
2 5.59202 0.83044 11.702
2 1.74494 5.37331 8.16293
2 7.01313 2.71555 1.96067
2 11.4445 6.50542 8.87605
2 6.3047 11.4257 2.18269
2 10.7309 8.04968 9.8633
2 3.5224 10.8405 2.19717
2 1.24967 3.08128 8.88437
2 10.1231 2.14999 2.20375
2 2.93623 8.63211 8.88795
2 8.69791 10.9032 2.8757
2 9.99716 3.2589 9.50885
2 3.91763 3.30989 2.94105
2 2.64285 4.46509 3.87021
2 8.21145 1.26564 10.6278
2 10.8204 10.0282 4.2382
2 3.23474 9.99618 11.6141
2 10.985 5.04121 4.33055
2 3.01278 2.61607 11.407
2 2.71599 8.72668 3.63753
2 8.92478 9.79299 11.5012
2 12.3949 10.4361 12.8087
2 1.50221 0.312762 6.77248
2 11.5583 1.36092 13.2016
2 10.3847 11.7631 6.30197
2 1.1565 11.8099 1.53017
2 12.2619 12.2515 7.62584
2 0.148631 12.4822 11.865
2 12.5141 0.808735 4.9928
2 0.107722 0.702533 0.668069
2 9.91976 10.4405 8.80076
2 1.05445 9.986 2.4193
2 1.26231 1.08106 8.97835
2 1.67584 2.51141 2.16653
2 2.40982 11.4981 8.58097
2 11.6585 10.2065 1.76893
2 9.69327 0.192931 8.72914
2 1.39819 10.3132 10.5372
2 1.26373 0.389512 3.56067
2 11.2783 1.69372 10.2758
2 10.3563 11.967 3.75932
2 11.6104 10.283 10.7151
2 10.6408 2.05229 4.88521
2 0.865446 1.94235 10.7785
2 2.08491 11.479 4.25154
1 11.6838 7.99548 8.56718
1 4.71834 11.815 1.82465
1 1.1628 3.94194 7.69242
1 8.64005 1.69099 1.7394
1 2.15445 7.01028 8.03925
1 7.71331 11.6569 1.69851
1 10.7714 4.7737 8.44898
1 5.04473 2.28121 1.90084
1 0.575246 4.64834 4.03183
1 7.5153 1.14443 11.9867
1 11.6918 8.80858 5.69033
1 3.97236 11.305 12.1136
1 10.8414 6.10341 5.3801
1 4.18484 1.881 12.2476
1 1.89558 7.65538 4.67928
1 7.40055 10.4877 12.1439
1 10.4665 10.6225 2.92212
1 2.77373 10.0083 9.67997
1 2.74807 4.28516 1.88547
1 9.45774 1.55963 9.65578
1 2.60039 10.2181 3.22272
1 10.1005 9.52109 10.3391
1 10.8314 3.28283 3.76603
1 2.11577 2.45044 10.1138
1 1.40902 0.476521 1.57393
1 10.5788 11.8233 7.91283
1 0.198372 10.4136 0.767391
1 1.06971 12.4035 8.07235
1 0.202039 10.9715 11.2044
1 1.27247 -0.229922 5.1618
1 12.4665 1.07109 11.6456
1 11.0103 0.188105 4.85724
96
 Atoms. Timestep: 4000
2 2.42389 8.10156 4.32839
2 5.12018 12.0142 9.98316
2 12.4503 4.96513 5.33648
2 8.19778 12.5584 10.874
2 8.75834 7.80652 10.6623
2 8.75047 0.597252 1.50898
2 0.648968 7.81382 8.19634
2 5.57687 0.182479 1.28106
2 -0.0348565 8.54917 5.69661
2 4.687 10.3103 0.534185
2 2.79522 4.58543 6.8536
2 8.39681 1.91907 12.5743
2 2.4939 7.57396 6.77496
2 8.10388 12.051 -0.0287456
2 8.7439 6.81259 7.84639
2 4.84836 1.86311 12.6196
2 10.2847 7.36806 5.87815
2 6.12705 10.8198 11.6349
2 1.17129 6.21021 4.37545
2 6.27823 1.18854 10.6773
2 1.98926 5.71521 8.78578
2 3.72457 12.3954 12.5955
2 7.32706 5.75818 10.0924
2 7.29248 11.2443 1.94557
2 10.8427 8.66806 9.09262
2 4.84592 10.7131 2.93561
2 1.58273 3.06603 8.91342
2 6.44469 2.02732 1.55576
2 2.5961 8.616 9.33232
2 9.91259 10.6666 1.90168
2 11.0042 3.42741 7.89625
2 3.36003 2.55192 1.6132
2 1.83007 3.52166 3.79225
2 9.21971 2.16481 9.60382
2 10.0612 9.57081 4.55325
2 3.62785 10.7925 10.9937
2 9.51908 4.86434 6.40883
2 3.75331 1.12698 10.2666
2 3.17543 8.58909 3.07228
2 8.56253 9.99817 11.3787
2 0.223654 9.86194 13.0776
2 1.56944 12.4254 6.95714
2 12.4641 1.01363 -0.186562
2 10.5268 0.125154 6.56765
2 12.111 12.0159 1.6122
2 12.3079 11.798 8.00066
2 0.506656 12.2024 11.4857
2 0.366857 12.6904 4.54895
2 10.7394 1.48635 0.852457
2 9.58945 11.2058 9.05965
2 2.14221 10.8864 2.17085
2 1.28526 0.534316 9.26584
2 0.897832 1.19454 1.78712
2 2.21083 10.7045 8.88547
2 12.0676 9.80329 2.33523
2 11.2995 1.14324 8.42677
2 0.721103 9.41915 10.2626
2 12.1211 1.01579 3.16856
2 11.5046 1.98791 10.8628
2 11.0425 12.0009 4.24569
2 11.2878 9.55414 11.1428
2 11.4714 2.46661 5.15242
2 0.83783 1.85425 10.7531
2 2.77444 11.0358 4.4857
1 12.3629 8.97912 8.57718
1 5.32259 11.3117 1.61581
1 1.59524 4.33056 8.01436
1 9.20146 1.88697 0.535619
1 2.45287 7.19254 8.2835
1 9.01015 11.774 1.36972
1 8.25388 6.98765 9.51937
1 5.01916 1.97562 0.728025
1 1.02109 4.49945 4.63371
1 7.98787 1.30905 10.7891
1 11.2161 8.51165 5.81039
1 4.8728 10.2608 12.4284
1 8.95206 6.54347 6.43785
1 4.65397 0.600651 11.4267
1 1.59566 7.6046 5.55906
1 7.72696 11.0495 11.9991
1 10.7693 10.3338 3.17994
1 2.42278 9.86804 10.2474
1 2.02374 2.3026 2.25685
1 11.0012 2.63216 9.4687
1 3.20049 10.2744 3.07836
1 9.70128 9.97778 10.2137
1 11.0957 4.15331 6.18211
1 2.14294 1.7084 9.89441
1 12.1145 1.04611 1.56784
1 10.6353 12.2259 8.15883
1 0.4793 10.6798 1.55707
1 1.18255 11.8703 8.53786
1 0.0248899 10.2464 11.5703
1 1.72574 12.4331 5.32983
1 12.6055 1.0734 11.6512
1 11.511 0.735474 5.04807
96
 Atoms. Timestep: 6000
2 12.2056 5.61671 3.19825
2 5.64751 3.38268 10.1627
2 2.01815 1.83309 5.01718
2 7.82174 9.33112 9.71714
2 9.7578 6.63217 11.1798
2 7.74489 -0.0773283 0.307573
2 3.31737 5.47334 8.1593
2 4.18469 0.995785 1.17478
2 11.527 6.72879 5.0072
2 6.2915 10.5951 10.3919
2 3.30638 3.90474 5.67494
2 9.74301 1.34765 11.9599
2 0.534205 5.85943 6.04569
2 7.63026 9.91996 12.5923
2 8.14471 7.141 8.44712
2 5.04334 3.05725 12.3566
2 9.05879 7.66062 6.16433
2 5.5191 8.59789 12.2599
2 0.701393 3.83533 4.59681
2 7.28904 2.56135 12.791
2 1.92188 4.28294 7.22153
2 5.82831 0.813002 11.5344
2 7.28881 7.4359 10.5149
2 6.42931 11.3613 1.56533
2 1.32102 6.15084 10.4011
2 3.8829 11.5626 2.37552
2 3.82501 3.43448 8.51227
2 4.2129 3.21961 1.93901
2 1.95627 6.89265 8.10522
2 8.59876 10.7745 2.17692
2 10.2141 3.83674 7.238
2 2.33045 2.56043 -0.0394682
2 1.8237 3.41207 2.37187
2 10.097 1.95682 9.30586
2 10.7279 9.48152 4.26653
2 4.33453 11.0529 10.0635
2 7.83365 4.8896 6.35688
2 7.60289 2.48855 10.1891
2 1.30429 10.5954 2.99158
2 11.1903 6.85794 13.2741
2 0.27518 10.8246 1.27086
2 1.16408 0.971917 7.46669
2 1.72688 4.46348 12.5845
2 9.1862 9.17694 9.25901
2 11.4067 1.54618 1.61179
2 12.3738 11.4088 9.15143
2 2.42622 10.3254 12.4554
2 11.9106 1.54331 5.75478
2 9.64342 2.48794 0.795976
2 11.2305 8.88246 10.4719
2 1.38526 12.4841 2.14536
2 2.9161 1.11621 9.68233
2 12.1021 3.45991 1.82889
2 1.83822 11.3154 9.68614
2 10.7896 12.0598 2.6811
2 10.3435 11.7403 10.4351
2 2.78788 8.71167 9.6573
2 10.3592 2.17731 3.64042
2 11.8279 3.70824 9.90886
2 10.0085 12.0741 4.81792
2 0.421625 8.5121 12.4966
2 9.08293 2.482 5.46489
2 2.16496 3.27471 10.6463
2 1.99197 12.2728 4.86229
1 2.51506 7.05743 9.82245
1 5.05479 12.228 1.53187
1 4.08947 4.50768 7.12348
1 8.66835 1.37337 0.0908612
1 1.15229 5.67519 7.58021
1 7.822 10.9424 0.871035
1 8.5735 6.42667 9.90331
1 3.97845 2.46192 0.216128
1 2.62361 3.40689 4.07827
1 10.3407 0.817964 10.4837
1 10.5127 8.07328 5.24622
1 5.54988 11.7521 11.0398
1 8.17259 6.50877 6.8125
1 6.37098 2.56773 11.4524
1 12.3402 5.00832 4.6756
1 6.57505 9.12429 11.1402
1 9.88857 10.884 3.53259
1 3.06328 10.0721 10.7137
1 0.948867 3.44129 1.00678
1 10.7935 3.25567 8.70177
1 2.57756 11.8988 3.26057
1 11.0836 7.67314 11.9257
1 8.58982 3.62663 6.7127
1 3.70102 2.87209 9.97422
1 10.6858 2.92489 1.98953
1 11.0295 10.129 9.40248
1 12.1098 12.3387 1.688
1 1.38596 12.5188 8.92981
1 0.858663 9.99521 13.0722
1 0.91908 1.09596 5.98471
1 0.811249 4.43698 10.7128
1 10.5191 1.11365 5.28135
96
 Atoms. Timestep: 8000
2 0.70129 5.37328 2.97466
2 4.3562 2.0648 10.5004
2 0.0282977 2.34965 5.43029
2 9.80264 11.1972 4.86297
2 9.70181 9.28885 8.85802
2 7.54556 9.4276 0.597869
2 2.50464 2.35762 6.3842
2 6.07798 2.28747 2.23834
2 11.6727 7.26758 4.13396
2 6.46179 10.0116 11.9454
2 0.581587 3.74116 7.25729
2 9.31386 2.62096 11.5108
2 0.759045 6.36103 5.75441
2 6.70418 7.42873 13.3459
2 8.39372 6.86098 8.37626
2 5.51714 4.90496 4.41009
2 9.54316 6.85705 5.90171
2 5.18666 6.21291 5.06032
2 11.7203 4.52597 5.38516
2 6.78569 1.09336 12.9815
2 2.70974 4.98625 6.79399
2 5.05285 0.217193 11.8489
2 7.77898 8.53454 11.0139
2 6.59908 11.885 1.33231
2 12.5763 7.1382 8.9256
2 4.14226 0.164867 1.76189
2 2.78911 3.28517 8.74664
2 7.28293 4.26715 2.71751
2 2.04195 7.05902 8.06921
2 8.36809 10.1782 2.36083
2 1.07305 2.98386 9.74365
2 4.40157 3.94845 2.04873
2 2.4083 2.68448 2.2293
2 9.26571 2.30585 8.1363
2 9.61796 8.93793 3.31533
2 4.19271 10.2505 10.6702
2 8.50776 4.59507 6.67565
2 7.20497 2.1907 10.2085
2 3.08195 6.06703 5.13908
2 12.5085 3.73912 11.4943
2 0.237589 11.6187 12.6337
2 1.69186 0.104557 7.04198
2 2.00495 3.8833 0.227517
2 10.6914 0.30658 7.07464
2 11.6685 0.507761 1.69516
2 0.323088 0.103411 9.36739
2 1.12664 9.86435 11.0813
2 11.807 0.27002 5.0916
2 9.26711 0.950227 0.94025
2 11.7595 11.1862 8.59163
2 1.68709 0.604868 0.655628
2 2.06157 1.43987 8.77026
2 1.89332 5.1211 2.13001
2 2.37371 10.9606 9.15364
2 11.2966 9.95885 2.54121
2 10.5339 3.37661 9.66194
2 2.15779 7.78189 10.3795
2 9.60528 0.918457 3.69446
2 0.110056 1.90337 13.1364
2 9.99388 11.5904 2.11335
2 11.2944 9.20587 10.9254
2 9.23128 1.4243 6.30976
2 2.18615 2.78485 11.6173
2 1.80123 0.865848 3.74543
1 1.31611 6.5533 9.52368
1 5.77935 0.791795 1.38695
1 2.16708 3.71191 7.31648
1 8.54277 1.5268 12.982
1 2.21875 6.48828 6.49443
1 6.93133 10.3973 1.69771
1 8.39841 8.64098 9.41458
1 5.6269 3.90514 2.91825
1 11.6207 3.45683 6.58299
1 9.03324 2.47699 9.79335
1 9.92832 7.47795 4.39247
1 5.11995 11.1396 11.6775
1 8.27604 6.10904 6.8041
1 5.82704 1.54833 11.0947
1 12.5434 5.72456 4.52218
1 7.16846 8.60582 12.3756
1 9.79072 10.5738 3.31944
1 2.66426 9.51051 10.6448
1 2.9002 4.13523 1.49946
1 12.1761 3.36913 10.1037
1 2.58532 0.702239 2.09509
1 11.1977 9.79325 9.27835
1 9.30076 3.06446 6.87655
1 2.59818 2.20844 10.1538
1 10.1188 0.443951 1.99181
1 11.4181 0.195618 8.68972
1 0.179595 0.386976 0.358924
1 1.66934 12.5193 8.84079
1 12.6579 10.0832 12.0589
1 0.93256 0.590375 5.69588
1 0.921114 3.29204 12.5543
1 10.0805 0.180531 5.47805
96
 Atoms. Timestep: 10000
2 0.295504 5.11978 2.05048
2 3.40958 1.33137 11.0055
2 12.5276 1.91985 3.20792
2 -0.319151 4.85398 8.85369
2 10.7029 9.42875 8.82429
2 7.00342 9.45778 0.973374
2 2.64509 2.31805 5.74376
2 7.76835 1.41244 1.33505
2 11.9352 6.8587 3.49839
2 4.34715 9.81521 0.380151
2 0.353531 3.33139 6.05906
2 8.5524 0.635089 8.57319
2 0.766239 6.45882 4.55831
2 5.41531 9.6114 11.8949
2 10.8101 7.45281 8.00304
2 6.51845 3.9909 13.4803
2 9.91117 6.55077 5.15561
2 5.9187 1.03778 13.1353
2 12.3415 4.18541 4.1453
2 8.06217 0.761445 3.67681
2 2.32717 4.50217 6.13269
2 3.34033 12.2828 11.8624
2 6.77004 4.35399 9.6037
2 6.66241 11.9393 3.00874
2 0.908025 10.7105 7.3834
2 5.79098 1.50861 1.56061
2 1.67845 2.96143 8.88922
2 8.74605 2.19125 13.5769
2 1.61113 7.58813 6.58801
2 8.74466 10.0824 2.92062
2 8.72203 3.33771 10.765
2 1.4141 4.92314 13.023
2 3.07803 2.28518 0.184198
2 7.8706 2.49541 9.0767
2 10.6498 9.16493 4.4077
2 3.28174 9.88557 11.2309
2 8.5771 5.4246 7.81245
2 5.7241 0.310515 10.2065
2 3.4883 5.59311 4.88874
2 11.2952 2.475 11.7604
2 0.328082 11.3062 12.6293
2 11.6305 1.48026 5.82116
2 0.788293 2.95618 12.8343
2 11.5838 2.23828 8.61023
2 0.366425 -0.306892 1.64464
2 -0.222431 0.150413 8.31225
2 0.947997 9.49032 10.9677
2 0.897595 -0.046821 4.15611
2 10.5868 0.644613 3.26987
2 10.6335 12.5978 8.77034
2 2.38882 11.4237 -0.140133
2 1.93954 -0.146445 9.45566
2 1.27829 4.03913 1.25987
2 1.1807 11.0824 9.67137
2 9.52862 11.9005 4.0979
2 8.94488 1.32602 10.8435
2 1.6433 8.72562 8.96517
2 11.4258 3.61193 6.4669
2 0.559453 0.81338 12.9178
2 11.7325 11.7944 3.37649
2 11.7052 10.686 10.6248
2 10.062 4.31633 8.57826
2 0.485915 1.58164 10.4223
2 3.46614 1.74434 2.68763
1 0.537742 8.65989 7.5929
1 6.72691 0.457794 2.72996
1 1.61641 3.01268 7.05045
1 9.43505 0.44824 4.54306
1 1.90825 6.18079 5.57332
1 7.39659 10.5241 2.45117
1 11.5739 8.81065 7.67957
1 6.85023 2.22083 0.154146
1 12.0255 2.97405 5.02288
1 7.55836 1.21931 9.9016
1 10.5603 7.5812 4.08093
1 3.51682 10.8445 12.8326
1 9.70456 6.38068 6.87729
1 4.61558 0.567595 11.5721
1 13.0411 5.44074 3.75298
1 5.79417 9.29146 -0.25384
1 10.2628 10.4399 3.70944
1 2.2344 9.76085 10.1432
1 2.12654 3.58403 0.0830582
1 9.66175 2.42168 11.9503
1 3.98473 1.15226 1.13891
1 10.5219 11.0061 9.46554
1 8.37503 4.43636 9.15899
1 2.12388 1.41207 10.1988
1 12.3676 0.24282 3.19981
1 11.5968 0.690466 7.58824
1 0.642793 12.4572 -0.132069
1 0.938887 12.185 8.43173
1 -0.21237 10.1168 11.6007
1 2.57177 1.05591 4.67918
1 12.9921 1.99624 11.8628
1 11.4844 3.8332 8.13116
96
 Atoms. Timestep: 12000
2 0.258746 9.54104 3.97179
2 4.18408 3.50076 8.85134
2 10.4183 2.27181 4.05535
2 10.7889 3.61416 7.51918
2 9.69935 9.44346 10.7007
2 5.51677 8.12004 10.967
2 4.13336 5.58987 9.76487
2 8.70559 6.50469 10.6494
2 10.9457 7.91018 4.06777
2 5.63915 10.5299 8.92217
2 11.7224 3.42876 5.15181
2 7.28193 11.9738 10.875
2 1.07707 7.33556 5.60778
2 3.63105 8.74038 8.99251
2 8.82107 5.70669 7.43613
2 9.33313 4.56734 10.3437
2 8.7477 6.78051 5.40175
2 6.72004 4.94668 11.0061
2 10.0651 5.5312 3.27224
2 8.03343 11.4916 2.33856
2 1.80001 4.90251 6.35646
2 5.67373 2.7607 10.6427
2 1.38643 5.69626 10.2167
2 6.57811 10.2535 0.719788
2 0.240561 11.5169 6.39665
2 5.97308 12.0061 2.6829
2 1.80721 3.12903 7.31899
2 9.4331 3.79487 12.3019
2 3.29936 6.42207 7.72324
2 8.3611 8.87467 12.1823
2 11.9142 5.35878 12.4616
2 3.30264 12.0097 2.62365
2 4.94508 3.75523 1.78414
2 6.76777 1.12603 12.7621
2 9.16183 7.57115 2.33475
2 3.40966 10.891 9.77869
2 11.2689 7.57005 10.3783
2 4.55243 0.756469 11.229
2 3.00797 5.69299 4.61043
2 12.1974 2.99713 12.1705
2 1.15069 10.8526 0.842992
2 10.0038 1.24713 7.32575
2 3.0304 3.19409 0.620398
2 9.78063 2.81776 9.19483
2 1.16589 11.2 2.99946
2 11.3546 12.3021 8.46144
2 1.4917 10.3434 11.4297
2 11.0232 11.7032 4.49008
2 9.05245 0.541725 4.57648
2 9.36004 11.8144 9.6878
2 3.7011 1.03269 8.38053
2 1.44975 11.9802 8.78413
2 2.68948 2.15421 3.43027
2 0.97876 9.83002 9.07409
2 9.86096 9.67873 2.46714
2 11.0896 3.70266 2.3788
2 2.53657 8.17163 10.6273
2 9.47894 4.02561 5.4132
2 1.48374 1.80579 0.705508
2 11.4034 9.57254 12.9003
2 9.93492 11.5133 11.654
2 11.2531 4.57168 9.66651
2 2.4455 2.08622 10.3817
2 3.90854 0.670973 4.86331
1 2.62441 6.585 9.4863
1 6.90046 11.914 1.29295
1 0.373204 3.8232 6.4127
1 9.22476 10.9721 3.22952
1 2.49549 6.3959 6.11662
1 6.75007 8.59948 12.5907
1 9.56581 8.09998 9.85928
1 8.11766 4.96985 11.6758
1 10.5728 4.01157 3.86476
1 6.17569 1.3366 11.1915
1 9.5139 7.00437 4.00232
1 4.55894 11.7256 9.2571
1 8.26118 5.3647 6.0331
1 4.99207 4.40435 10.0035
1 0.63319 7.75169 4.08883
1 5.49946 8.47594 9.57186
1 9.7323 8.93068 0.844537
1 2.38287 9.57512 10.0189
1 3.69442 2.84622 2.29492
1 11.0824 3.85891 0.77657
1 4.62454 0.64234 3.46756
1 8.48366 11.0601 10.9178
1 11.7616 5.96477 10.8619
1 2.89042 2.39454 8.42533
1 10.2865 1.13763 5.57396
1 9.87367 1.10959 9.00163
1 1.9016 0.368669 1.88083
1 0.293308 10.9835 7.98444
1 11.7793 11.0126 11.9412
1 0.556872 10.9298 4.58564
1 1.8373 2.48579 11.7669
1 9.67996 4.58462 8.67423
96
 Atoms. Timestep: 14000
2 0.969293 10.6875 2.64002
2 4.97166 4.61414 9.14276
2 10.7933 3.08387 4.18778
2 4.50833 2.47399 6.85011
2 8.04231 10.562 10.6929
2 5.2184 9.6358 11.9115
2 3.50739 6.93667 10.7046
2 8.41709 5.95883 13.0344
2 0.682012 5.43307 5.71975
2 4.09344 11.7406 10.6852
2 1.7263 1.83111 6.4998
2 7.80508 0.676565 10.6308
2 2.79697 6.36124 5.54015
2 10.3979 9.41975 9.03929
2 11.1808 4.19305 8.57851
2 8.82196 3.46214 11.0206
2 9.12359 5.57926 7.39078
2 7.56173 5.10811 10.8944
2 12.097 4.6038 3.81464
2 8.01579 11.869 2.837
2 2.55122 4.42332 6.383
2 6.56321 5.88416 10.2614
2 0.680233 6.74031 10.4607
2 7.44934 11.3727 -0.202004
2 0.766206 11.0749 5.40117
2 5.74144 11.798 2.5013
2 7.20985 3.75095 7.66436
2 10.1365 4.2689 12.3512
2 2.37086 6.85167 8.64322
2 8.30801 9.0315 12.5254
2 11.6739 5.20475 11.3728
2 1.84288 10.2823 0.765445
2 3.43808 2.71516 4.38432
2 8.09508 0.884392 0.350894
2 10.5272 7.11242 4.45054
2 0.843482 8.61553 8.77278
2 11.0936 7.12021 12.5294
2 6.72293 2.98992 11.128
2 2.98882 9.24113 9.85863
2 0.905844 3.22879 12.4849
2 12.0778 10.1254 11.5427
2 8.80326 1.14307 5.74652
2 2.98421 2.49437 1.2444
2 9.0323 2.10408 8.56606
2 11.4927 8.94571 3.6778
2 10.7113 0.122815 7.211
2 10.6937 9.34425 5.85753
2 10.8447 11.456 4.09249
2 8.58327 3.50725 4.54909
2 8.39014 11.6694 7.96004
2 4.61926 2.21565 8.82395
2 0.522539 0.629961 6.89057
2 0.607351 2.36136 2.67668
2 -0.379828 10.1789 7.4493
2 8.83561 9.22137 4.02961
2 11.4126 4.4765 1.5951
2 11.2572 7.13441 7.35019
2 12.7545 5.89246 8.30149
2 1.12917 0.560722 12.1562
2 8.95399 8.09621 1.96289
2 9.84847 11.7788 9.77862
2 10.5052 6.55359 9.48577
2 2.86164 2.00375 11.2783
2 2.97605 8.33521 3.12563
1 2.01788 7.6948 9.93849
1 7.17991 0.0206013 1.64035
1 3.05579 2.72424 6.04409
1 9.23179 11.2106 4.14857
1 1.75582 6.27751 7.09664
1 7.04575 9.9564 12.0795
1 9.04243 7.49441 0.164023
1 8.83671 4.81882 11.8616
1 11.7633 3.46612 2.71543
1 7.88343 1.97007 11.7434
1 11.3764 5.70248 4.64635
1 3.69504 1.36005 10.0664
1 10.6603 5.77289 8.05455
1 4.81439 5.71029 10.2028
1 3.60605 7.65247 4.47192
1 3.64765 10.3385 10.8345
1 10.0878 8.13047 3.23913
1 11.0799 8.76008 7.59772
1 2.30685 2.43095 2.90669
1 11.8193 4.4313 12.7335
1 2.33987 9.7923 2.37451
1 8.35201 11.7327 9.57909
1 11.4786 6.66527 10.7277
1 5.58773 3.21928 8.07819
1 9.47699 2.25409 4.89729
1 9.13921 0.718698 7.23719
1 1.08303 11.0329 12.2425
1 12.103 11.6467 6.78643
1 10.9435 10.6605 10.0932
1 12.304 10.4692 3.91465
1 2.05108 1.97463 12.8622
1 9.75673 3.28629 9.60296
96
 Atoms. Timestep: 16000
2 2.41579 9.77695 3.33845
2 4.16591 3.99514 9.6921
2 8.50956 2.51879 3.60857
2 4.30401 3.20388 6.65802
2 8.42934 10.2926 10.6337
2 5.97733 9.57561 11.2371
2 2.97355 5.10133 11.6152
2 8.23925 6.16542 0.623113
2 2.86445 6.523 3.28831
2 3.5499 10.6606 11.4721
2 5.36468 3.19719 4.35672
2 7.23633 12.3463 9.81336
2 2.90502 5.39301 1.13758
2 0.567726 0.4404 9.82881
2 8.71035 4.99288 9.02234
2 7.55341 2.76349 10.6374
2 10.3244 4.90216 6.52799
2 6.96944 3.90762 13.2372
2 11.1626 4.18729 4.27857
2 7.88768 10.9617 2.7646
2 3.44797 5.23226 5.1657
2 5.46648 4.26353 12.532
2 0.82363 7.46259 11.5457
2 7.51978 10.3151 0.637474
2 1.19947 0.460336 4.00728
2 5.42806 11.5782 2.2959
2 6.47136 3.40363 8.59322
2 9.81812 3.95837 1.4893
2 2.51331 6.82758 9.54518
2 8.1707 8.41752 13.2373
2 11.5437 5.55494 12.4065
2 1.03678 9.62006 1.32009
2 2.7811 3.72307 3.36797
2 7.6843 0.453428 12.6359
2 10.394 6.96348 4.63463
2 0.279653 11.5385 8.06137
2 10.0495 7.79213 12.5621
2 5.58784 0.469686 11.0146
2 3.91914 7.72295 11.3452
2 0.48991 2.67373 12.4455
2 12.0609 11.6921 12.2169
2 7.35953 0.951222 5.68648
2 2.68251 2.4015 1.21255
2 8.58664 2.65826 7.67142
2 12.2768 8.389 3.01348
2 3.14438 1.99208 4.85421
2 3.11395 12.2213 9.25949
2 10.1539 12.3806 4.29979
2 6.65832 0.977098 3.06777
2 8.77933 12.0671 7.63441
2 4.78302 1.8057 8.54099
2 2.58965 11.0891 4.34914
2 10.805 1.66962 2.8231
2 2.57661 0.720907 6.92552
2 10.187 9.97571 4.37681
2 0.552381 4.39886 1.36832
2 0.915639 5.29432 5.23578
2 10.7489 6.39442 10.1523
2 1.31957 0.637761 1.38247
2 9.31829 8.08726 2.70536
2 10.312 11.4036 9.68857
2 8.82425 7.54953 7.78132
2 2.52401 0.90732 11.4095
2 4.46056 7.23728 0.854179
1 2.39723 6.76052 11.4254
1 6.83515 11.8154 1.62228
1 3.82492 3.61537 4.76792
1 9.02191 11.0559 3.79691
1 2.06028 6.23983 5.0406
1 7.52829 9.69283 11.8394
1 8.87325 7.37578 1.3529
1 8.15072 4.68818 1.12188
1 10.1601 3.00561 3.27058
1 7.18528 1.08578 11.251
1 11.2381 5.66572 5.42251
1 3.86889 0.00583231 10.8655
1 9.66083 6.42784 8.70279
1 4.33793 4.33394 11.242
1 3.10236 6.69874 1.5586
1 4.43809 9.28259 11.2868
1 10.6421 8.24722 3.69237
1 1.61808 0.470323 8.39244
1 2.38529 3.92489 1.75605
1 11.3394 4.03932 0.286045
1 1.80368 8.61918 2.3536
1 8.71913 11.301 9.26211
1 11.3478 6.98708 11.6569
1 4.83856 3.55292 8.33175
1 6.78198 2.05971 4.19161
1 8.08071 1.25747 6.99166
1 0.422096 11.1167 1.15681
1 2.53108 0.410804 5.2427
1 11.6156 11.5965 10.5115
1 11.5936 0.48597 3.82927
1 1.8903 1.57677 0.214167
1 7.87622 3.4406 9.04246
96
 Atoms. Timestep: 18000
2 2.28945 8.14202 1.23981
2 3.96385 6.30637 8.82694
2 8.92916 1.73037 4.90127
2 5.33989 4.43408 7.80602
2 6.97596 10.4474 2.95467
2 6.10422 7.92659 11.4286
2 1.90289 7.58106 9.68621
2 7.5893 6.06236 12.2516
2 2.79458 8.17482 5.23544
2 1.61386 10.6408 0.595315
2 6.29664 2.27409 5.89562
2 7.89338 10.915 11.3272
2 1.15894 4.97864 5.08471
2 12.0765 11.5282 8.33041
2 8.62881 3.46309 7.08696
2 7.61775 0.913676 10.3477
2 7.878 2.7826 9.65844
2 7.58477 3.82319 10.7455
2 10.2818 4.08459 4.35437
2 9.40252 0.599132 3.05046
2 2.32566 8.18245 7.49693
2 4.81664 9.1666 9.20129
2 11.0906 6.65618 10.0954
2 5.89095 10.808 11.6017
2 2.85533 3.20576 4.32666
2 8.67989 8.27794 3.38979
2 8.41189 1.63383 7.60255
2 11.6921 6.77356 2.10823
2 11.743 8.43147 7.95499
2 6.85686 7.63158 1.92164
2 9.92121 4.08109 12.0019
2 3.83854 9.45565 11.3952
2 3.91861 4.74272 6.01383
2 7.20734 0.984383 1.00966
2 10.4338 6.30252 3.86099
2 0.54679 9.80895 6.4232
2 8.15488 8.33271 11.2371
2 5.45688 1.19854 11.7682
2 11.4916 9.22559 10.9475
2 12.0284 3.85151 11.5478
2 11.689 11.2617 10.8249
2 7.25907 11.3755 6.1352
2 0.576403 2.17444 1.36932
2 10.2021 0.920507 8.87568
2 5.54534 5.88703 4.35945
2 3.88013 2.4883 6.49874
2 2.65675 10.7138 8.05144
2 12.1071 11.5561 3.21043
2 7.2953 0.832458 4.09118
2 7.34523 9.58614 8.63436
2 4.36137 3.69743 10.4314
2 2.15822 1.03459 4.20463
2 11.6356 1.78138 3.36513
2 2.24533 0.948272 6.95483
2 10.9064 9.24032 2.67489
2 2.77714 6.57012 3.62118
2 12.043 6.79136 5.77555
2 10.4762 4.8193 8.80122
2 10.7798 10.4609 1.10769
2 9.18393 7.74377 1.45882
2 9.78884 9.78094 9.32423
2 10.3975 5.2502 6.10183
2 2.50119 2.15488 11.6936
2 5.42889 8.21051 3.94476
1 11.6562 8.29489 9.75175
1 7.73248 12.0048 2.52137
1 5.29316 3.2982 6.65893
1 10.6318 10.8997 2.93065
1 0.965658 8.1674 6.32256
1 6.82654 8.82855 3.27116
1 7.35838 7.52416 12.6359
1 8.37141 4.81262 11.9685
1 10.0833 2.25448 3.96878
1 7.0386 0.512799 11.8542
1 11.3108 5.319 4.70725
1 4.0946 2.42873 11.9658
1 9.72792 4.61577 7.51831
1 3.2286 7.96616 8.89103
1 4.35636 7.2487 4.49218
1 5.4446 9.22916 10.8329
1 10.3376 7.72844 2.72941
1 1.19442 11.0825 7.19805
1 2.76234 5.11022 4.93883
1 1.85457 7.12539 2.1205
1 2.94309 9.5985 0.585861
1 8.15468 9.66186 9.9377
1 11.0935 5.02255 10.7998
1 4.18387 4.83595 8.94941
1 7.66168 1.24372 5.81037
1 7.55443 10.0792 7.04604
1 11.91 10.2552 12.1812
1 2.52304 1.84144 5.59615
1 10.6796 11.1933 9.38028
1 1.36241 1.04756 2.63625
1 1.02983 2.66359 12.2573
1 8.72104 1.34201 9.10053
96
 Atoms. Timestep: 20000
2 2.56892 8.92977 1.82566
2 8.09042 4.21671 8.3425
2 7.98623 2.46155 4.99845
2 4.64243 5.22798 7.30898
2 8.35421 9.91717 2.0726
2 5.84332 6.44567 11.6448
2 1.50272 6.72635 9.35187
2 8.56859 4.98665 11.6721
2 4.59096 10.2534 5.62709
2 1.74632 10.2243 12.0802
2 5.61324 3.08255 6.36285
2 8.68739 7.23666 6.55966
2 3.24881 7.38053 6.21704
2 10.9884 10.7239 8.41155
2 10.6083 1.98738 7.51232
2 6.36067 11.7954 9.856
2 7.33461 2.54723 9.93281
2 6.34119 3.12535 0.440999
2 6.83937 9.39048 6.49708
2 9.67426 11.3049 1.39967
2 1.30575 8.72075 6.21443
2 8.86106 6.62327 8.86184
2 10.9484 5.7983 10.8296
2 6.19261 8.92733 10.4245
2 1.10508 6.5809 4.73137
2 9.68154 7.87224 2.89897
2 7.60255 1.60612 7.84565
2 0.535719 7.1671 1.36975
2 10.2846 7.66511 10.0149
2 7.81551 7.66419 1.79621
2 9.36875 3.11834 11.1218
2 4.09181 8.60741 11.8625
2 3.58733 5.24476 5.59908
2 7.08929 10.8823 12.0929
2 10.6852 5.84104 3.11019
2 11.5685 10.8569 6.16237
2 7.55933 7.45728 11.2635
2 4.70752 10.9129 12.4266
2 0.580919 8.46425 10.837
2 0.445477 3.10791 11.3431
2 11.1031 10.9679 10.7093
2 8.18212 8.8468 8.36513
2 1.78249 2.81791 2.261
2 8.94288 12.0413 9.5632
2 7.02603 0.5675 5.56042
2 3.04649 2.77192 6.97584
2 0.886447 1.20134 7.33857
2 11.3533 12.0606 3.69203
2 8.32592 0.638334 2.71054
2 9.42475 10.1543 6.53704
2 4.61406 4.32755 2.91218
2 1.52025 2.10388 4.58005
2 10.3367 2.27042 4.0278
2 0.365752 3.47394 6.70562
2 10.6478 9.92482 3.97763
2 2.75552 6.34873 3.04612
2 10.6251 7.2981 5.78272
2 10.5537 4.139 9.08282
2 11.6739 10.2011 1.58366
2 9.09522 6.97197 12.499
2 8.84237 9.60161 10.623
2 10.244 4.70432 5.61832
2 3.53178 3.36572 12.5013
2 6.93511 10.1894 4.20634
1 11.6981 7.02977 10.293
1 8.04568 11.3938 1.35357
1 4.34072 3.81279 6.56478
1 10.7059 10.8005 2.58863
1 10.9238 9.22581 5.60989
1 8.15988 8.68278 3.50629
1 7.42705 6.43977 12.6736
1 7.72221 3.74386 11.5294
1 8.9237 1.74648 3.87915
1 5.90505 10.7581 11.1081
1 11.2005 5.79029 4.84199
1 5.02348 3.47837 1.43881
1 10.4975 3.6643 7.32005
1 2.10363 7.46638 7.61174
1 6.1897 10.7062 5.44193
1 5.14135 7.73773 10.7268
1 10.2914 6.83669 1.68917
1 11.0227 12.0758 7.26806
1 2.67662 6.51016 4.77876
1 2.1139 7.40826 2.07386
1 3.29281 9.973 12.7085
1 8.43487 8.14651 9.86822
1 10.7807 4.00835 10.7367
1 8.74135 5.66443 7.10792
1 7.10981 2.11615 6.35999
1 8.4242 8.93974 6.7429
1 0.172954 9.88278 11.8649
1 1.36163 2.43984 6.43761
1 9.78471 10.7036 9.92477
1 0.54388 1.98804 3.29557
1 2.00215 2.93411 12.3742
1 7.42171 1.2179 9.41707
96
 Atoms. Timestep: 22000
2 3.52444 7.44452 0.621852
2 10.7751 6.20497 7.00356
2 8.47324 1.09757 6.54286
2 9.13972 6.81654 5.43175
2 7.84003 11.1429 0.86356
2 6.4327 7.48056 10.6688
2 0.841701 6.69637 8.58788
2 8.22368 5.55721 10.6465
2 7.58755 12.055 4.0441
2 1.32629 8.24197 12.2847
2 4.22357 1.3268 4.12842
2 7.75198 7.99833 6.74397
2 1.66331 5.76307 5.55767
2 12.1978 0.449056 10.2944
2 10.3564 3.9493 8.49539
2 7.19406 0.6955 11.8169
2 8.28788 2.68008 9.88098
2 9.39776 5.78767 8.56861
2 5.43504 8.83641 8.22341
2 8.61011 0.936823 1.7846
2 0.929636 8.49623 6.6334
2 9.63559 8.38288 8.05555
2 12.0725 4.97856 10.9616
2 5.18926 10.1782 10.9651
2 11.8969 6.21441 4.36578
2 8.06344 8.37508 1.93026
2 7.24265 12.3858 9.31019
2 10.2062 8.53043 0.588384
2 11.3905 8.13403 10.9447
2 7.35946 8.32719 12.417
2 11.2735 1.44304 12.0087
2 3.94282 7.99545 10.4927
2 2.50669 5.10581 3.31287
2 4.20852 12.2332 1.07555
2 9.60946 6.30297 2.7427
2 11.0491 10.03 5.5774
2 9.29351 8.04826 10.6068
2 3.34958 9.55639 12.3776
2 2.12539 7.2575 10.665
2 1.35897 4.41846 1.21838
2 11.9581 10.8853 12.7701
2 11.7154 9.91266 8.38567
2 0.731438 2.73762 3.37226
2 9.62498 0.475317 11.3878
2 7.27709 10.6361 7.44166
2 3.0728 1.07489 5.87895
2 1.19075 11.5605 6.66262
2 10.6686 1.80485 2.64614
2 6.23511 0.715578 6.30546
2 5.99593 9.95542 5.22567
2 6.14365 1.48196 2.08279
2 10.5264 4.53746 4.43813
2 9.75438 1.95475 5.11529
2 0.696554 2.72679 6.97433
2 9.44682 10.8177 2.9242
2 1.99325 7.6589 3.48841
2 9.39936 8.29526 3.59745
2 11.7628 2.68375 12.3515
2 11.4027 11.0202 3.4566
2 8.90731 6.79257 12.7402
2 10.8149 10.403 10.5297
2 0.628981 2.6429 9.14586
2 3.70889 2.64907 2.4698
2 6.29671 10.0981 2.56019
1 0.541788 6.64682 10.25
1 7.28837 0.73804 0.987126
1 4.76476 0.906278 5.42772
1 10.5706 0.240978 1.95327
1 10.2194 9.63452 4.20497
1 7.3274 9.595 1.46437
1 7.89319 7.08595 11.3533
1 9.07336 4.54178 9.4239
1 8.94852 0.541468 5.07862
1 4.35445 10.7846 12.6027
1 10.3346 5.99096 4.03747
1 4.55748 1.07415 2.30221
1 11.4525 2.91711 8.28299
1 0.43351 6.52784 7.01937
1 6.58283 10.6733 4.0314
1 5.27009 8.75472 9.98826
1 9.47095 7.39668 1.66261
1 0.488376 9.9572 6.92573
1 1.31295 6.29722 3.97304
1 2.9206 8.2495 1.94325
1 3.04803 8.1307 11.7826
1 10.3545 8.93632 9.51057
1 0.726024 4.16217 12.3486
1 9.25566 7.02174 7.17106
1 7.22636 0.252823 7.6399
1 6.33208 9.32831 7.04751
1 11.7114 9.12588 12.5669
1 1.60106 1.32797 6.24891
1 11.1254 11.9107 11.4077
1 10.9056 2.94915 4.33189
1 1.98038 3.79311 2.57843
1 7.99148 0.906306 10.5565
96
 Atoms. Timestep: 24000