LAMMPS (2 Aug 2023 - Update 3)
units metal
boundary p p p
atom_style full
pair_style tersoff
neighbor 2.0 bin
neigh_modify delay 1




read_data SiO.data
Reading data file ...
  orthogonal box = (0 0 0) to (12.589463 12.589463 13.222096)
  1 by 1 by 1 MPI processor grid
WARNING: Atom style in data file atom-ID molecule-ID atom-type q x y z differs from currently defined atom style full (../read_data.cpp:621)
  reading atoms ...
  96 atoms
Finding 1-2 1-3 1-4 neighbors ...
  special bond factors lj:    0        0        0       
  special bond factors coul:  0        0        0       
     0 = max # of 1-2 neighbors
     0 = max # of 1-3 neighbors
     0 = max # of 1-4 neighbors
     1 = max # of special neighbors
  special bonds CPU = 0.000 seconds
  read_data CPU = 0.004 seconds
replicate 1 1 1
Replication is creating a 1x1x1 = 1 times larger system...
  orthogonal box = (0 0 0) to (12.589463 12.589463 13.222096)
  1 by 1 by 1 MPI processor grid
  96 atoms
Finding 1-2 1-3 1-4 neighbors ...
  special bond factors lj:    0        0        0       
  special bond factors coul:  0        0        0       
     0 = max # of 1-2 neighbors
     0 = max # of 1-3 neighbors
     0 = max # of 1-4 neighbors
     1 = max # of special neighbors
  special bonds CPU = 0.000 seconds
  replicate CPU = 0.001 seconds

pair_coeff * *  /root/Desktop/host/job1/SiO.tersoff Si O
Reading tersoff potential file /root/Desktop/host/job1/SiO.tersoff with DATE: 2010-08-16



group Si type 1
32 atoms in group Si
group O type 2
64 atoms in group O
#create_bonds many SiO SiO 1 0.5 10

dump dmp all xyz 2000 dump.lammpstrj



variable apot equal pe
# first number: number of steps to get current temp
# second number: calculate average n number of temp read above.
# third number: temp record (this must be larger than the one above )

variable atemp equal temp
fix temp_info all ave/time 10 200 2000 v_atemp file temperature.dat

#The cutoff used for pairwise computation (any pair style) and the
#associated neighbor list is the maximum cutoff that any compute
#can use. Atoms don't know any info about their neighbors
#further away than that.

# compute coord number
compute coor12 Si coord/atom cutoff 2.5 group O
compute coor11 Si coord/atom cutoff 2.5 group Si
compute coor22 O coord/atom cutoff 2.0 group O

compute sumcoor12 all reduce ave c_coor12
compute sumcoor11 all reduce ave c_coor11
compute sumcoor22 all reduce ave c_coor22


fix 12coord all ave/time  10 200 2000 c_sumcoor12 file Si-O_coord_number.dat
fix 11coord all ave/time  10 200 2000  c_sumcoor11 file Si-Si_coord_number.dat
fix 22coord all ave/time  10 200 2000  c_sumcoor22 file O-O_coord_number.dat




# unit cell information
variable avol equal vol
variable alx equal lx
variable aly equal ly
variable alz equal lz
fix cell_info all ave/time 10 200 2000 v_avol v_alx v_aly v_alz file cell_volume.dat


fix potential_info all ave/time 10 200 2000 v_apot file potential-energy.dat
thermo 1000



velocity all create 6000 382838 mom yes rot no dist gaussian
fix npt1 all npt temp 6000 5000 0.1 iso 0 0  1
timestep 0.001
#run 500
run 80000
Neighbor list info ...
  update: every = 1 steps, delay = 1 steps, check = yes
  max neighbors/atom: 2000, page size: 100000
  master list distance cutoff = 4.8
  ghost atom cutoff = 4.8
  binsize = 2.4, bins = 6 6 6
  4 neighbor lists, perpetual/occasional/extra = 1 3 0
  (1) pair tersoff, perpetual
      attributes: full, newton on
      pair build: full/bin
      stencil: full/bin/3d
      bin: standard
  (2) compute coord/atom, occasional, copy from (1)
      attributes: full, newton on
      pair build: copy
      stencil: none
      bin: none
  (3) compute coord/atom, occasional, copy from (1)
      attributes: full, newton on
      pair build: copy
      stencil: none
      bin: none
  (4) compute coord/atom, occasional, copy from (1)
      attributes: full, newton on
      pair build: copy
      stencil: none
      bin: none
Per MPI rank memory allocation (min/avg/max) = 6.021 | 6.021 | 6.021 Mbytes
   Step          Temp          E_pair         E_mol          TotEng         Press          Volume    
         0   6000          -638.06385      0             -564.38556      73800.118      2095.6304    
      1000   5463.2241     -564.41242      0             -497.32559      7791.7359      2243.3589    
      2000   5592.2865     -541.79871      0             -473.12703      20636.454      2210.0933    
      3000   5572.0156     -523.44432      0             -455.02156      3643.3547      2430.6132    
      4000   5098.794      -534.94039      0             -472.32865      20346.712      2170.1492    
      5000   5966.3997     -528.5979       0             -455.33222      55422.077      2320.3926    
      6000   5778.0113     -520.45899      0             -449.50667      7121.9241      2024.4654    
      7000   5632.5635     -522.02917      0             -452.8629       10798.723      2082.6288    
      8000   5774.8304     -532.42016      0             -461.5069       12840.714      2118.9195    
      9000   6244.9114     -522.8735       0             -446.18778      418.17149      1992.6598    
     10000   5500.7587     -520.32241      0             -452.77467     -27504.018      2374.2792    
     11000   5959.4352     -526.81797      0             -453.63781      12847.71       2166.2445    
     12000   5848.1581     -522.58707      0             -450.77336     -41726.232      1786.0699    
     13000   6146.0673     -533.65406      0             -458.18212      42993.959      1746.4308    
     14000   5743.2809     -519.99757      0             -449.47173     -37480.75       1959.1001    
     15000   5836.0386     -527.83038      0             -456.1655       80331.668      1747.2819    
     16000   5680.1657     -537.32654      0             -467.57573     -18113.676      1867.4039    
     17000   5794.1919     -528.56453      0             -457.41351      65272.273      1470.7739    
     18000   5412.9934     -541.49981      0             -475.0298      -24424.219      1691.5824    
     19000   7625.296      -529.32386      0             -435.6874      -10474.808      1463.6896    
     20000   5405.9389     -535.54196      0             -469.15858      19808.729      1605.809     
     21000   5891.4194     -535.53978      0             -463.19483      65581.984      1657.1948    
     22000   5362.3838     -536.97091      0             -471.12237     -36541.002      1828.482     
     23000   5294.6549     -544.30599      0             -479.28914     -9848.3229      1702.274     
     24000   5952.9124     -531.55039      0             -458.45033     -10451.232      1924.4582    
     25000   5401.0646     -542.5691       0             -476.24557      45679.931      1599.3812    
     26000   4800.587      -548.59201      0             -489.64218     -13937.046      1673.5276    
     27000   5391.2706     -537.69183      0             -471.48857     -26516.274      1595.3479    
     28000   5611.8686     -539.96668      0             -471.05454     -50187.868      1617.7156    
     29000   4838.017      -536.22694      0             -476.81748     -31278.889      1814.4235    
     30000   6378.0197     -529.90063      0             -451.58037     -21311.398      1597.5388    
     31000   6012.5156     -541.43586      0             -467.60389      22092.644      1552.7071    
     32000   6125.737      -544.93777      0             -469.71547     -34126.814      1594.5674    
     33000   6480.6952     -537.51051      0             -457.92942      44045.343      1437.8401    
     34000   5628.4756     -538.80943      0             -469.69336     -41508.205      1540.1193    
     35000   5871.8496     -537.55454      0             -465.44991      24539.079      1546.7955    
     36000   5278.5076     -543.33812      0             -478.51955     -2087.2377      1555.4583    
     37000   6180.5793     -554.58156      0             -478.68582      27138.288      1437.9983    
     38000   4465.9431     -537.71384      0             -482.87334     -13756.14       1461.3192    
     39000   6307.0661     -530.89828      0             -453.44931     -7048.2113      1788.415     
     40000   5721.3232     -541.29013      0             -471.03391     -6369.2715      1722.4372    
     41000   5644.7092     -548.72695      0             -479.41154      25511.334      1653.5936    
     42000   5477.6086     -547.35661      0             -480.09314      14097.038      1696.8926    
     43000   5816.9386     -547.31646      0             -475.88612      19957.816      1709.0204    
     44000   5198.1235     -538.3706       0             -474.53913      559.05979      1607.2617    
     45000   5515.8622     -550.71049      0             -482.97728      8153.47        1829.5465    
     46000   6021.4302     -542.22088      0             -468.27944      55059.178      1700.4612    
     47000   6297.2736     -534.8394       0             -457.51069     -10328.963      1769.7644    
     48000   5966.2617     -546.34103      0             -473.07704      22237.563      1791.8212    
     49000   5801.5233     -545.78933      0             -474.54829      2394.4587      1634.7871    
     50000   5636.1509     -546.51709      0             -477.30677     -18606.866      1611.3561    
     51000   5343.8729     -554.86532      0             -489.24409      8523.5152      1621.3524    
     52000   5511.3268     -548.72336      0             -481.04585      39770.381      1682.1307    
     53000   4829.0419     -555.60933      0             -496.31008      8183.4942      1529.6802    
     54000   5458.1101     -551.22577      0             -484.20174      59989.012      1533.2723    
     55000   5305.9179     -559.60614      0             -494.45099      59105.869      1570.6648    
     56000   5803.8819     -559.09777      0             -487.82777     -24250.038      1619.6778    
     57000   5480.4271     -550.1923       0             -482.89422      1900.3484      1629.8749    
     58000   4604.864      -548.58013      0             -492.03372     -25277.78       1613.2832    
     59000   6114.3315     -564.1873       0             -489.10505     -10359.242      1595.8368    
     60000   5305.464      -542.26675      0             -477.11717     -41119.615      1597.0975    
     61000   4549.4719     -543.90988      0             -488.04367     -18901.318      1508.8282    
     62000   5767.6547     -548.38242      0             -477.55727     -26473.456      1614.4865    
     63000   5553.6912     -551.00897      0             -482.81124      11680.44       1560.1319    
     64000   5922.3658     -553.46682      0             -480.74187     -25067.827      1581.2062    
     65000   5231.1571     -555.10424      0             -490.86712     -21243.057      1512.3352    
     66000   5261.4595     -558.68002      0             -494.07081      37006.996      1471.8346    
     67000   4975.0321     -557.74655      0             -496.65458     -15498.42       1502.7565    
     68000   5443.6977     -550.87513      0             -484.02808     -7189.9525      1607.9976    
     69000   5062.3624     -539.12169      0             -476.95733     -10489.089      1531.7948    
     70000   5265.0454     -552.81274      0             -488.15949     -20112.553      1467.8536    
     71000   4992.2637     -557.36507      0             -496.0615      -16923.453      1492.1254    
     72000   5012.6021     -539.45671      0             -477.90339      2252.7774      1531.7167    
     73000   5346.2837     -550.13462      0             -484.48379      51078.019      1552.597     
     74000   4822.7644     -545.62876      0             -486.40659      47255.586      1600.1119    
     75000   4771.6829     -537.71014      0             -479.11524      56517.531      1490.8155    
     76000   4052.1073     -552.25521      0             -502.49649     -3522.2262      1631.3953    
     77000   5877.8082     -541.16859      0             -468.99079      32560.4        1675.5948    
     78000   4895.7936     -553.97995      0             -493.86101      2201.8532      1528.8782    
     79000   4525.9103     -552.35849      0             -496.78161      369.87545      1558.3965    
     80000   4753.9064     -540.63619      0             -482.25958     -37394.807      1778.2036    
Loop time of 7.43806 on 1 procs for 80000 steps with 96 atoms

Performance: 929.274 ns/day, 0.026 hours/ns, 10755.492 timesteps/s, 1.033 Matom-step/s
92.9% CPU use with 1 MPI tasks x no OpenMP threads

MPI task timing breakdown:
Section |  min time  |  avg time  |  max time  |%varavg| %total
---------------------------------------------------------------
Pair    | 6.1829     | 6.1829     | 6.1829     |   0.0 | 83.13
Bond    | 0.0033481  | 0.0033481  | 0.0033481  |   0.0 |  0.05
Neigh   | 0.48277    | 0.48277    | 0.48277    |   0.0 |  6.49
Comm    | 0.22341    | 0.22341    | 0.22341    |   0.0 |  3.00
Output  | 0.0098564  | 0.0098564  | 0.0098564  |   0.0 |  0.13
Modify  | 0.49034    | 0.49034    | 0.49034    |   0.0 |  6.59
Other   |            | 0.04545    |            |       |  0.61

Nlocal:             96 ave          96 max          96 min
Histogram: 1 0 0 0 0 0 0 0 0 0
Nghost:            444 ave         444 max         444 min
Histogram: 1 0 0 0 0 0 0 0 0 0
Neighs:              0 ave           0 max           0 min
Histogram: 1 0 0 0 0 0 0 0 0 0
FullNghs:         2366 ave        2366 max        2366 min
Histogram: 1 0 0 0 0 0 0 0 0 0

Total # of neighbors = 2366
Ave neighs/atom = 24.645833
Ave special neighs/atom = 0
Neighbor list builds = 3772
Dangerous builds = 0

fix npt1 all npt temp 5000 4000 0.1 iso 0 0 1
run 80000
Per MPI rank memory allocation (min/avg/max) = 8.549 | 8.549 | 8.549 Mbytes
   Step          Temp          E_pair         E_mol          TotEng         Press          Volume    
     80000   4753.9064     -540.63619      0             -482.25958     -37394.807      1778.2036    
     81000   5178.6794     -556.02167      0             -492.42897     -35464.08       1658.0234    
     82000   4888.581      -558.16673      0             -498.13636      1459.5327      1596.7507    
     83000   4886.0048     -542.12309      0             -482.12435     -26810.69       1621.7485    
     84000   5395.8796     -548.85374      0             -482.59388      9169.6227      1685.2928    
     85000   4428.0789     -555.80903      0             -501.43349     -33438.327      1657.6137    
     86000   4759.3442     -552.80083      0             -494.35744     -35968.915      1727.2805    
     87000   4938.0399     -544.25486      0             -483.61715     -53373.778      1741.6138    
     88000   4980.6611     -562.54498      0             -501.38388     -515.9599       1630.7567    
     89000   4809.7104     -562.38836      0             -503.32649      36870.978      1647.5343    
     90000   5015.4213     -556.86287      0             -495.27493      54521.09       1605.8878    
     91000   4753.2998     -552.52492      0             -494.15576      17210.696      1618.1837    
     92000   4722.7287     -558.64787      0             -500.65411      14863.304      1692.7101    
     93000   4450.8788     -565.16783      0             -510.51231     -16603.775      1644.094     
     94000   5025.5466     -561.97172      0             -500.25944     -30912.324      1685.1914    
     95000   4585.3813     -560.50019      0             -504.19302      31620.466      1679.6705    
     96000   5372.3957     -555.71493      0             -489.74344      8160.82        1490.6113    
     97000   4648.4707     -560.645        0             -503.56311     -21803.887      1463.7843    
     98000   4688.3764     -549.30643      0             -491.73451     -59894.679      1600.559     
     99000   5313.0963     -552.63437      0             -487.39107     -53932.343      1632.3788    
    100000   5533.1187     -560.09573      0             -492.15062     -31914.491      1498.288     
    101000   4550.9946     -549.98176      0             -494.09685     -8797.2089      1418.7934    
    102000   4559.6035     -560.17154      0             -504.18092      7254.922       1483.6421    
    103000   5125.0582     -561.49223      0             -498.55798     -15321.36       1565.5645    
    104000   4542.9569     -567.17259      0             -511.38638      1549.8378      1564.8882    
    105000   4761.0063     -565.7072       0             -507.24341     -13620.896      1542.2362    
    106000   4191.3914     -574.95163      0             -523.48255      66149.399      1496.4671    
    107000   4467.6955     -569.79493      0             -514.93291      24440.299      1456.4827    
    108000   5133.291      -564.31768      0             -501.28233      21127.966      1513.7929    
    109000   4758.0653     -561.71337      0             -503.28569      3408.0057      1567.9401    
    110000   4646.211      -565.53412      0             -508.47998      9124.8732      1564.7632    
    111000   5085.3997     -567.72268      0             -505.27543      15512.645      1593.2836    
    112000   5519.9743     -563.42247      0             -495.63876      5649.0932      1607.4592    
    113000   4772.2321     -565.30918      0             -506.70754      18481.492      1543.0978    
    114000   4416.2721     -566.75243      0             -512.52187     -14243.091      1597.6999    
    115000   4530.0647     -567.32466      0             -511.69676     -7181.9542      1547.1965    
    116000   3860.1479     -552.33637      0             -504.93486     -24088.51       1638.4711    
    117000   3841.6722     -559.6691       0             -512.49446     -9088.253       1575.5419    
    118000   4830.5511     -560.20346      0             -500.88567     -24053.349      1642.5138    
    119000   4976.4745     -563.61627      0             -502.50659     -19620.755      1653.3034    
    120000   4280.004      -570.63176      0             -518.07453      11712.328      1679.5466    
    121000   4185.3967     -564.66688      0             -513.2714       20944.39       1573.1561    
    122000   4320.5953     -569.71823      0             -516.66255      8995.3365      1622.9818    
    123000   4677.7504     -570.99739      0             -513.55596     -34089.316      1679.2702    
    124000   3942.6048     -559.77762      0             -511.36356     -10883.542      1693.8743    
    125000   3928.4889     -571.40179      0             -523.16107     -22009.348      1701.706     
    126000   4424.514      -569.49219      0             -515.16043     -6968.7463      1658.8213    
    127000   3894.167      -569.29485      0             -521.47559      13201.111      1620.4933    
    128000   4299.8009     -576.83777      0             -524.03744     -11718.771      1669.5242    
    129000   4177.4718     -573.19204      0             -521.89388     -7810.015       1579.072     
    130000   4625.002      -572.24407      0             -515.45037      33601.443      1544.9063    
    131000   5043.2875     -564.38243      0             -502.4523      -29083.927      1690.1356    
    132000   4331.4065     -566.37336      0             -513.18492      7362.2881      1673.4465    
    133000   4147.4237     -571.89745      0             -520.96827     -24915.961      1642.8792    
    134000   4514.8957     -560.76916      0             -505.32753      10292.618      1704.1631    
    135000   5147.6803     -562.2564       0             -499.04436     -19715.25       1656.0022    
    136000   3779.118      -555.81337      0             -509.40688     -35267.772      1599.5437    
    137000   4057.8242     -563.93978      0             -514.11086      28664.165      1556.4792    
    138000   4375.9507     -570.19831      0             -516.46288      51582.783      1495.3302    
    139000   4218.3219     -571.22204      0             -519.42226      14267.247      1515.3595    
    140000   4079.0153     -564.95701      0             -514.86787      12017.138      1571.0627    
    141000   4394.5456     -562.24784      0             -508.28408     -34877.738      1634.4217    
    142000   4656.0193     -574.51788      0             -517.3433      -6913.7991      1703.1497    
    143000   4326.0927     -569.91385      0             -516.79067     -556.75325      1614.9835    
    144000   5296.669      -569.46668      0             -504.4251       38442.104      1594.8635    
    145000   4159.0062     -572.10479      0             -521.03338      7470.5992      1573.9906    
    146000   4175.3971     -568.73456      0             -517.46188     -21413.535      1589.5623    
    147000   4608.1992     -568.36157      0             -511.77421      13190.182      1636.011     
    148000   3852.6875     -564.33105      0             -517.02115     -23785.865      1550.6441    
    149000   3737.383      -570.36331      0             -524.46932     -5788.0544      1551.6779    
    150000   4165.4093     -563.62681      0             -512.47678     -21023.317      1568.4082    
    151000   4019.8719     -576.11962      0             -526.75675     -34130.131      1602.1486    
    152000   4273.4317     -567.65747      0             -515.18095     -33860.516      1587.0928    
    153000   4879.0412     -567.93524      0             -508.02201     -10567.727      1599.336     
    154000   4235.6928     -563.94454      0             -511.93145     -25398.197      1581.7944    
    155000   4354.6581     -572.99543      0             -519.52147     -10855.002      1563.4374    
    156000   4026.0499     -563.30835      0             -513.86961      23546.827      1456.1568    
    157000   3620.616      -571.66114      0             -527.20101      27598.009      1484.8283    
    158000   3868.7895     -577.14012      0             -529.63249     -33876.136      1464.2169    
    159000   4126.1072     -567.38788      0             -516.72047     -8509.3956      1434.8337    
    160000   3771.8633     -572.81968      0             -526.50228     -21227.578      1416.103     
Loop time of 7.0195 on 1 procs for 80000 steps with 96 atoms

Performance: 984.685 ns/day, 0.024 hours/ns, 11396.821 timesteps/s, 1.094 Matom-step/s
97.2% CPU use with 1 MPI tasks x no OpenMP threads

MPI task timing breakdown:
Section |  min time  |  avg time  |  max time  |%varavg| %total
---------------------------------------------------------------
Pair    | 5.888      | 5.888      | 5.888      |   0.0 | 83.88
Bond    | 0.0034666  | 0.0034666  | 0.0034666  |   0.0 |  0.05
Neigh   | 0.41594    | 0.41594    | 0.41594    |   0.0 |  5.93
Comm    | 0.20452    | 0.20452    | 0.20452    |   0.0 |  2.91
Output  | 0.0094755  | 0.0094755  | 0.0094755  |   0.0 |  0.13
Modify  | 0.45836    | 0.45836    | 0.45836    |   0.0 |  6.53
Other   |            | 0.03977    |            |       |  0.57

Nlocal:             96 ave          96 max          96 min
Histogram: 1 0 0 0 0 0 0 0 0 0
Nghost:            502 ave         502 max         502 min
Histogram: 1 0 0 0 0 0 0 0 0 0
Neighs:              0 ave           0 max           0 min
Histogram: 1 0 0 0 0 0 0 0 0 0
FullNghs:         2956 ave        2956 max        2956 min
Histogram: 1 0 0 0 0 0 0 0 0 0

Total # of neighbors = 2956
Ave neighs/atom = 30.791667
Ave special neighs/atom = 0
Neighbor list builds = 3298
Dangerous builds = 0

fix npt1 all npt temp 4000 4000 0.1 iso 0 0 1
run 80000
Per MPI rank memory allocation (min/avg/max) = 8.549 | 8.549 | 8.549 Mbytes
   Step          Temp          E_pair         E_mol          TotEng         Press          Volume    
    160000   3771.8633     -572.81968      0             -526.50228     -21227.578      1416.103     
    161000   3593.9036     -573.42507      0             -529.29296      17090.431      1479.2667    
    162000   3855.442      -572.03969      0             -524.69596     -27556.319      1500.3497    
    163000   3811.9696     -571.57814      0             -524.76824     -1975.9742      1474.5274    
    164000   4501.1467     -574.08131      0             -518.80852      1668.7962      1500.6857    
    165000   3896.0212     -564.30903      0             -516.467       -46837.558      1491.9467    
    166000   3926.8969     -570.50742      0             -522.28625      26275.274      1428.3224    
    167000   4412.1414     -573.10229      0             -518.92245     -11894.82       1474.1591    
    168000   4137.6775     -574.63999      0             -523.8305      -6914.1299      1505.219     
    169000   3507.8625     -570.32986      0             -527.25432      2262.7373      1502.4781    
    170000   3876.4868     -565.34408      0             -517.74193     -5367.5548      1509.331     
    171000   4381.8753     -580.08696      0             -526.27879     -9787.6358      1543.4835    
    172000   3961.2165     -577.34494      0             -528.70234     -41655.282      1610.7597    
    173000   3875.0621     -576.28537      0             -528.70072     -63379.299      1595.0036    
    174000   3932.0468     -576.88885      0             -528.60444     -637.51228      1496.6639    
    175000   4592.889      -572.20672      0             -515.80736      11476.428      1469.624     
    176000   3924.7137     -575.21146      0             -527.0171       3.3620072      1467.8118    
    177000   4155.6697     -578.13122      0             -527.10079      27586.825      1462.1819    
    178000   4151.5518     -580.41611      0             -529.43625     -22459.266      1508.9604    
    179000   4483.3685     -572.85353      0             -517.79904     -18810.835      1501.6625    
    180000   3916.5018     -576.96635      0             -528.87283      10821.455      1469.0581    
    181000   4384.8693     -575.89808      0             -522.05314     -13854.078      1427.1455    
    182000   4325.8887     -580.46626      0             -527.34558      9918.9199      1421.1469    
    183000   3669.7097     -580.91075      0             -535.84776     -25640.628      1424.1223    
    184000   4016.1475     -578.60434      0             -529.28719      43954.411      1408.4598    
    185000   3400.2138     -576.62503      0             -534.87137      540.80365      1412.5594    
    186000   4077.3776     -572.526        0             -522.45697      60523.408      1313.3072    
    187000   4002.1147     -574.36147      0             -525.21665      53699.78       1433.0655    
    188000   3603.2686     -572.73926      0             -528.49215     -31658.917      1530.2064    
    189000   4691.2505     -571.09376      0             -513.48655     -21054.042      1575.6849    
    190000   3786.4203     -573.10438      0             -526.60822     -41411.352      1519.1835    
    191000   4499.3201     -575.27143      0             -520.02107     -23056.172      1502.972     
    192000   3990.0276     -572.78497      0             -523.78857     -6565.6285      1491.5326    
    193000   4372.3954     -575.85343      0             -522.16167     -4277.866       1506.0901    
    194000   3652.5556     -586.41362      0             -541.56128      27944.71       1485.306     
    195000   4150.2712     -576.17722      0             -525.21308     -13290.715      1526.5888    
    196000   4128.4524     -578.42398      0             -527.72776     -7080.5215      1485.7409    
    197000   4042.5337     -578.15215      0             -528.51099     -27757.484      1551.906     
    198000   4008.1921     -569.50831      0             -520.28886      19878.146      1464.8309    
    199000   4175.736      -575.33588      0             -524.05904      3753.6318      1470.2709    
    200000   3984.7326     -574.67992      0             -525.74855     -2873.22        1443.4895    
    201000   3740.9422     -566.50988      0             -520.57218      5501.3441      1485.4911    
    202000   4133.6466     -579.19654      0             -528.43654     -31327.141      1480.7414    
    203000   4425.651      -568.34278      0             -513.99705      24239.251      1479.1911    
    204000   4084.3443     -571.25651      0             -521.10193      34643.504      1425.7138    
    205000   4171.362      -579.62283      0             -528.39969     -10141.228      1487.5174    
    206000   3487.7937     -565.39864      0             -522.56953     -22926.325      1473.7861    
    207000   4313.0046     -569.32245      0             -516.35998     -1156.5866      1509.0648    
    208000   4098.2306     -572.97343      0             -522.64833      4937.0452      1407.5169    
    209000   3137.8373     -576.18675      0             -537.655        35105.964      1378.185     
    210000   4109.1372     -568.33109      0             -517.87206     -34655.517      1382.5646    
    211000   4069.5905     -574.31695      0             -524.34354      18998.729      1404.0812    
    212000   4012.9314     -577.04224      0             -527.76459     -38383.73       1435.6601    
    213000   4747.3942     -569.98093      0             -511.68429     -11457.77       1436.6385    
    214000   3870.1113     -577.76462      0             -530.24076     -28380.635      1527.7124    
    215000   4383.2641     -575.60785      0             -521.78263      16932.767      1517.8488    
    216000   3334.0031     -573.03998      0             -532.09938     -35540.153      1420.5688    
    217000   3507.6475     -573.72576      0             -530.65285     -53680.226      1403.7588    
    218000   4110.6425     -576.71682      0             -526.23931     -12783.891      1397.9067    
    219000   3707.6212     -569.51659      0             -523.98806     -25246.08       1387.1155    
    220000   4470.7634     -573.18099      0             -518.28129     -9581.7536      1413.6474    
    221000   3933.8018     -579.9664       0             -531.66044      7351.1937      1376.7377    
    222000   4171.9909     -579.20605      0             -527.97519     -20443.129      1397.1406    
    223000   3897.9326     -572.27846      0             -524.41296      18901.283      1379.8777    
    224000   4448.281      -568.31653      0             -513.69291     -51337.439      1407.9429    
    225000   4003.4537     -578.96223      0             -529.80097     -17431.074      1403.8884    
    226000   4034.9892     -573.55931      0             -524.0108       16450.621      1311.6028    
    227000   4217.0908     -575.36609      0             -523.58143      2899.4281      1354.9145    
    228000   4127.6826     -574.03367      0             -523.3469       43267.043      1330.1234    
    229000   4450.901      -578.09732      0             -523.44153      21613.36       1307.6865    
    230000   4405.4766     -575.75828      0             -521.66029     -58267.791      1346.6627    
    231000   3514.6896     -574.69529      0             -531.53591     -4154.5926      1384.8386    
    232000   4299.3575     -573.76897      0             -520.97409     -20218.343      1367.802     
    233000   4154.2575     -572.2658       0             -521.25271     -21818.322      1400.9428    
    234000   3537.6754     -566.04306      0             -522.60142     -13993.722      1393.9656    
    235000   4115.1513     -576.74172      0             -526.20884     -15078.885      1388.7132    
    236000   3941.9135     -572.69816      0             -524.29259      31987.77       1259.0309    
    237000   4001.4251     -571.42124      0             -522.28488      21757.2        1328.3703    
    238000   4002.0791     -573.14944      0             -524.00505      15686.034      1356.8354    
    239000   3786.9285     -575.4503       0             -528.9479      -12028.154      1426.9475    
    240000   3835.9642     -572.06317      0             -524.95863     -13381.065      1387.7184    
Loop time of 7.29121 on 1 procs for 80000 steps with 96 atoms

Performance: 947.991 ns/day, 0.025 hours/ns, 10972.120 timesteps/s, 1.053 Matom-step/s
97.0% CPU use with 1 MPI tasks x no OpenMP threads

MPI task timing breakdown:
Section |  min time  |  avg time  |  max time  |%varavg| %total
---------------------------------------------------------------
Pair    | 6.1467     | 6.1467     | 6.1467     |   0.0 | 84.30
Bond    | 0.0034549  | 0.0034549  | 0.0034549  |   0.0 |  0.05
Neigh   | 0.40895    | 0.40895    | 0.40895    |   0.0 |  5.61
Comm    | 0.21515    | 0.21515    | 0.21515    |   0.0 |  2.95
Output  | 0.010648   | 0.010648   | 0.010648   |   0.0 |  0.15
Modify  | 0.46531    | 0.46531    | 0.46531    |   0.0 |  6.38
Other   |            | 0.04095    |            |       |  0.56

Nlocal:             96 ave          96 max          96 min
Histogram: 1 0 0 0 0 0 0 0 0 0
Nghost:            502 ave         502 max         502 min
Histogram: 1 0 0 0 0 0 0 0 0 0
Neighs:              0 ave           0 max           0 min
Histogram: 1 0 0 0 0 0 0 0 0 0
FullNghs:         2988 ave        2988 max        2988 min
Histogram: 1 0 0 0 0 0 0 0 0 0

Total # of neighbors = 2988
Ave neighs/atom = 31.125
Ave special neighs/atom = 0
Neighbor list builds = 3061
Dangerous builds = 0

fix npt1 all npt temp 4000 3000 0.1 iso 0 0  1
run 80000
Per MPI rank memory allocation (min/avg/max) = 8.549 | 8.549 | 8.549 Mbytes
   Step          Temp          E_pair         E_mol          TotEng         Press          Volume    
    240000   3835.9642     -572.06317      0             -524.95863     -13381.065      1387.7184    
    241000   3499.4585     -577.57036      0             -534.59801     -33893.918      1433.558     
    242000   4236.7753     -569.86044      0             -517.83405     -18645.4        1429.0589    
    243000   4200.945      -574.22179      0             -522.63539     -14301.699      1369.7709    
    244000   4027.1341     -573.22955      0             -523.7775      -6330.8647      1409.236     
    245000   4057.7581     -568.91009      0             -519.08198     -21182.491      1417.8198    
    246000   4276.025      -574.7734       0             -522.26504     -25504.557      1489.7899    
    247000   3450.8361     -573.30829      0             -530.93301     -2634.8913      1490.9227    
    248000   3937.9908     -572.4866       0             -524.1292      -818.53016      1450.0459    
    249000   3756.8263     -577.31546      0             -531.1827       59618.922      1369.4661    
    250000   3833.635      -572.4066       0             -525.33066     -38973.53       1519.4835    
    251000   3889.5704     -572.98613      0             -525.22332      24362.974      1518.8464    
    252000   3471.8426     -572.72582      0             -530.09259      7584.4681      1472.105     
    253000   3573.8922     -567.64028      0             -523.75391      10382.72       1416.9275    
    254000   3776.7724     -577.47165      0             -531.09397      44981.635      1428.7789    
    255000   3606.2202     -576.86954      0             -532.58619      5031.3858      1415.2026    
    256000   3987.2327     -566.84301      0             -517.88094      18496.273      1369.0781    
    257000   3803.7061     -579.20591      0             -532.49749      9227.0602      1397.8968    
    258000   4420.6924     -571.19192      0             -516.90708     -31985.295      1423.5759    
    259000   3887.5565     -583.85627      0             -536.11819     -18010.221      1394.9485    
    260000   3759.2988     -574.27723      0             -528.11411     -1091.538       1453.9684    
    261000   3307.045      -579.86296      0             -539.25339     -45307.801      1483.3682    
    262000   3586.5743     -574.66865      0             -530.62655      1576.962       1481.595     
    263000   3697.3811     -576.49973      0             -531.09695     -1269.607       1512.8592    
    264000   3276.8519     -584.80116      0             -544.56236     -8195.9592      1496.8582    
    265000   3707.0152     -573.74564      0             -528.22456      24107.825      1510.9495    
    266000   3441.233      -576.85431      0             -534.59695      29455.771      1462.0274    
    267000   3794.7854     -580.12061      0             -533.52173      6818.9129      1433.5407    
    268000   3662.5023     -585.62114      0             -540.64666      20409.838      1394.4453    
    269000   4116.3928     -579.53933      0             -528.99121      2245.4059      1421.2421    
    270000   3620.3783     -585.61813      0             -541.16092      3600.9357      1410.0794    
    271000   4071.6515     -585.10445      0             -535.10574      35067.614      1397.7083    
    272000   3325.6533     -581.50154      0             -540.66347      10579.033      1443.3087    
    273000   3763.1447     -583.75156      0             -537.54122     -10704.981      1437.0115    
    274000   3455.6798     -587.57216      0             -545.13741      30320.624      1419.746     
    275000   3575.7146     -583.42995      0             -539.5212      -13035.425      1458.4224    
    276000   4487.2529     -582.05782      0             -526.95564      30801.299      1425.8344    
    277000   3595.7791     -585.9944       0             -541.83927      7031.1145      1440.6402    
    278000   3115.5833     -582.72978      0             -544.4713      -7600.2246      1504.8138    
    279000   3738.4178     -576.54184      0             -530.63514      18902.155      1491.1763    
    280000   3823.4222     -587.81824      0             -540.86771      20143.553      1481.6488    
    281000   3532.7165     -581.54018      0             -538.15943      9808.2481      1443.8431    
    282000   3651.2765     -583.85906      0             -539.02242      38068.26       1464.7984    
    283000   3238.1868     -585.84999      0             -546.08599     -20212.982      1478.7582    
    284000   3623.0996     -584.41738      0             -539.92675      25800.193      1476.0067    
    285000   3289.3153     -582.4293       0             -542.03745     -43345.637      1495.6376    
    286000   3699.7709     -576.45629      0             -531.02416      5763.7892      1500.7537    
    287000   3033.3787     -578.18709      0             -540.93807     -34772.28       1500.489     
    288000   3212.418      -584.89091      0             -545.44334      29332.749      1444.4484    
    289000   3277.6516     -582.05476      0             -541.80613      13774.111      1411.4753    
    290000   3080.4973     -587.59662      0             -549.769       -15752.639      1487.5174    
    291000   3486.0109     -585.3668       0             -542.55959      45117.16       1490.0741    
    292000   3743.9684     -579.53527      0             -533.56041     -13298.184      1499.5388    
    293000   2749.215      -577.32041      0             -543.56083     -11591.747      1485.2728    
    294000   3533.0671     -583.9695       0             -540.58445     -6318.7252      1537.2006    
    295000   3151.0247     -590.44103      0             -551.74735     -11604.436      1531.9095    
    296000   3601.8661     -579.78738      0             -535.55749     -27588.96       1554.9869    
    297000   2949.8397     -584.01046      0             -547.78728     -20015.06       1504.4455    
    298000   2924.1691     -584.34168      0             -548.43372     -17884.942      1490.1794    
    299000   3427.5332     -577.79768      0             -535.70855     -1418.5161      1518.0658    
    300000   3247.6227     -584.26187      0             -544.38199      11023.918      1449.618     
    301000   3323.8734     -581.92937      0             -541.11315      11928.004      1456.273     
    302000   3198.8374     -584.56018      0             -545.27937      5194.5386      1460.4574    
    303000   3173.3266     -589.31836      0             -550.35082      17537.69       1374.6412    
    304000   2998.5093     -590.42464      0             -553.6038       35311.505      1380.7754    
    305000   3081.701      -581.82406      0             -543.98166      6474.6159      1374.3081    
    306000   2523.9101     -584.72423      0             -553.73133      3095.0433      1387.1292    
    307000   3273.6122     -587.40396      0             -547.20494     -4197.8069      1366.8186    
    308000   2883.454      -587.69674      0             -552.28875      25568.203      1362.4756    
    309000   2901.1126     -588.74418      0             -553.11934     -1276.0913      1350.2338    
    310000   2958.3343     -586.22915      0             -549.90165      2372.2662      1356.2499    
    311000   2945.6544     -588.0693       0             -551.89751      1606.0033      1351.3568    
    312000   3317.8442     -587.64948      0             -546.9073       11625.382      1367.5769    
    313000   2805.8468     -589.71517      0             -555.26017      28734.759      1386.3777    
    314000   2808.5168     -587.79746      0             -553.30968     -12605.751      1401.3914    
    315000   3267.0933     -587.39562      0             -547.27665      15650.484      1393.3795    
    316000   2902.9699     -587.96033      0             -552.31269      16752.933      1375.5434    
    317000   3253.5906     -588.07789      0             -548.12473      23351.077      1343.4965    
    318000   3486.9773     -585.75438      0             -542.9353       13446.227      1322.4722    
    319000   3153.3593     -591.09749      0             -552.37514      5121.0248      1354.3965    
    320000   2764.7117     -590.67043      0             -556.72056     -9139.4051      1405.9973    
Loop time of 7.13029 on 1 procs for 80000 steps with 96 atoms

Performance: 969.385 ns/day, 0.025 hours/ns, 11219.733 timesteps/s, 1.077 Matom-step/s
96.9% CPU use with 1 MPI tasks x no OpenMP threads

MPI task timing breakdown:
Section |  min time  |  avg time  |  max time  |%varavg| %total
---------------------------------------------------------------
Pair    | 6.0359     | 6.0359     | 6.0359     |   0.0 | 84.65
Bond    | 0.0028649  | 0.0028649  | 0.0028649  |   0.0 |  0.04
Neigh   | 0.36821    | 0.36821    | 0.36821    |   0.0 |  5.16
Comm    | 0.20989    | 0.20989    | 0.20989    |   0.0 |  2.94
Output  | 0.0088669  | 0.0088669  | 0.0088669  |   0.0 |  0.12
Modify  | 0.46496    | 0.46496    | 0.46496    |   0.0 |  6.52
Other   |            | 0.03957    |            |       |  0.55

Nlocal:             96 ave          96 max          96 min
Histogram: 1 0 0 0 0 0 0 0 0 0
Nghost:            526 ave         526 max         526 min
Histogram: 1 0 0 0 0 0 0 0 0 0
Neighs:              0 ave           0 max           0 min
Histogram: 1 0 0 0 0 0 0 0 0 0
FullNghs:         2930 ave        2930 max        2930 min
Histogram: 1 0 0 0 0 0 0 0 0 0

Total # of neighbors = 2930
Ave neighs/atom = 30.520833
Ave special neighs/atom = 0
Neighbor list builds = 2791
Dangerous builds = 0

fix npt1 all npt temp 3000 3000 0.1 iso 0 0 1
run 80000
Per MPI rank memory allocation (min/avg/max) = 8.549 | 8.549 | 8.549 Mbytes
   Step          Temp          E_pair         E_mol          TotEng         Press          Volume    
    320000   2764.7117     -590.67043      0             -556.72056     -9139.4051      1405.9973    
    321000   3212.3479     -591.50955      0             -552.06283     -17024.475      1434.7312    
    322000   3463.4581     -593.0347       0             -550.50443      34435.742      1367.475     
    323000   3182.1602     -589.18252      0             -550.1065      -27282.672      1402.0735    
    324000   2981.4291     -592.80672      0             -556.19562     -19241.42       1345.1555    
    325000   3229.5617     -584.64128      0             -544.98319     -33332.216      1407.1991    
    326000   2756.8718     -590.8388       0             -556.98521     -24499.891      1444.4385    
    327000   3127.8545     -585.66725      0             -547.25809     -9819.0315      1417.3398    
    328000   3261.7666     -587.28039      0             -547.22683     -18680.23       1454.6094    
    329000   3406.0242     -580.92931      0             -539.10431     -33563.169      1442.8417    
    330000   2995.0967     -589.79087      0             -553.01194     -1439.8506      1445.5034    
    331000   3198.1566     -586.04295      0             -546.7705      -4705.4001      1489.661     
    332000   2981.3838     -585.81643      0             -549.20589     -5263.9227      1463.5836    
    333000   2853.9033     -590.68708      0             -555.64196      12780.921      1401.2535    
    334000   3334.7586     -586.81157      0             -545.86169     -28230.152      1485.595     
    335000   2887.701      -586.06463      0             -550.60448     -4973.3932      1449.6854    
    336000   2762.7189     -590.39609      0             -556.47069      45738.38       1348.4757    
    337000   3267.1179     -589.2233       0             -549.10403     -37007.847      1372.2692    
    338000   3165.1377     -593.28092      0             -554.41393     -31013.425      1422.8712    
    339000   2775.9554     -587.2341       0             -553.14616     -1768.2545      1413.6213    
    340000   2895.9854     -587.92         0             -552.35813     -50601.316      1476.7235    
    341000   3145.6583     -592.22022      0             -553.59244     -10298.423      1440.4943    
    342000   3659.957      -588.48282      0             -543.5396       1755.9349      1403.7308    
    343000   2885.0638     -593.69554      0             -558.26778     -9591.8211      1420.3102    
    344000   2672.1053     -594.3276       0             -561.51491     -18665.004      1404.4485    
    345000   2874.9817     -588.01334      0             -552.70939      734.57151      1374.6681    
    346000   2828.3998     -594.31177      0             -559.57983     -3055.07        1398.8904    
    347000   2812.995      -592.39337      0             -557.8506      -7869.082       1395.4618    
    348000   3157.9751     -596.79013      0             -558.0111       30519.066      1429.2207    
    349000   3260.6935     -594.08599      0             -554.0456       12098.437      1383.5433    
    350000   3179.8971     -589.40141      0             -550.35318     -9047.3248      1354.7008    
    351000   2836.2846     -589.5112       0             -554.68244     -508.42349      1427.4386    
    352000   2990.3811     -589.08683      0             -552.3658       16603.613      1419.4526    
    353000   2691.2636     -592.74994      0             -559.70199     -2469.9855      1368.6694    
    354000   2867.2539     -593.82649      0             -558.61743     -11449.346      1367.7395    
    355000   3141.7277     -587.75483      0             -549.17532     -25712.67       1386.1226    
    356000   3288.9996     -598.59054      0             -558.20256      2345.0297      1344.7857    
    357000   3145.8812     -587.74984      0             -549.11932     -20976.674      1363.1982    
    358000   2883.174      -590.64402      0             -555.23947     -5363.0929      1425.5969    
    359000   3375.0707     -588.18163      0             -546.73673     -18107.544      1379.3747    
    360000   2879.7754     -591.0305       0             -555.66768     -26810.828      1391.9772    
    361000   2818.2499     -583.81211      0             -549.2048      -33802.973      1396.0376    
    362000   2992.7504     -590.04729      0             -553.29717      10649.188      1326.2638    
    363000   3238.3415     -596.99987      0             -557.23397      11176.202      1342.5547    
    364000   2841.8467     -590.15813      0             -555.26107      51726.01       1329.6643    
    365000   3193.1147     -592.19097      0             -552.98044     -2560.6514      1342.5603    
    366000   2977.8642     -589.28458      0             -552.71726     -39141.986      1409.1577    
    367000   3478.0854     -595.10002      0             -552.39013      37499.663      1345.971     
    368000   2990.7365     -593.21548      0             -556.49009      16883.862      1322.8424    
    369000   2997.0736     -595.75366      0             -558.95045     -20167.432      1296.3784    
    370000   3229.3458     -596.83279      0             -557.17735      7217.644       1321.7849    
    371000   3292.8894     -590.06585      0             -549.63011     -27493.017      1406.6876    
    372000   3513.7227     -590.24221      0             -547.0947       1706.1574      1395.7496    
    373000   3059.7476     -592.79224      0             -555.21942     -5213.8403      1376.0718    
    374000   2916.2739     -591.69292      0             -555.88191      24411.014      1348.0689    
    375000   2923.8094     -587.5159       0             -551.61236     -9463.144       1395.3754    
    376000   3223.4015     -587.0078       0             -547.42535     -15717.995      1444.593     
    377000   3042.1122     -589.37351      0             -552.01724      10029.768      1456.7383    
    378000   3374.7654     -593.96047      0             -552.51932     -1925.3274      1365.7638    
    379000   2759.6264     -589.14689      0             -555.25947     -12382.695      1366.5162    
    380000   3022.563      -583.77013      0             -546.65392     -4375.1905      1415.8069    
    381000   3101.3676     -590.61453      0             -552.53062     -17863.466      1435.1666    
    382000   3087.0796     -583.98986      0             -546.0814       10077.308      1379.4832    
    383000   3301.1023     -588.64994      0             -548.11335      37686.619      1315.6938    
    384000   2816.0923     -584.97306      0             -550.39225     -33931.366      1357.6628    
    385000   2929.9734     -585.73124      0             -549.75201     -30424.901      1398.5614    
    386000   3320.7538     -592.16246      0             -551.38455      9790.5731      1355.0007    
    387000   2526.8407     -589.28194      0             -558.25306      7693.2131      1323.9308    
    388000   3294.6316     -595.12677      0             -554.66964     -27808.484      1337.4262    
    389000   3222.1464     -596.14057      0             -556.57353     -5179.9278      1372.642     
    390000   3158.4479     -594.08402      0             -555.29918     -40331.668      1371.9271    
    391000   3123.0045     -590.19674      0             -551.84714      29599.561      1367.8941    
    392000   2995.3695     -594.11628      0             -557.334       -4486.5479      1387.438     
    393000   3280.7083     -594.25481      0             -553.96865      42027.138      1323.488     
    394000   2859.1648     -597.9683       0             -562.85857      35262.006      1328.9648    
    395000   2855.1501     -589.29709      0             -554.23667      8707.6053      1320.1465    
    396000   2706.031      -591.39775      0             -558.16846     -2770.9726      1422.9992    
    397000   3035.6441     -588.49364      0             -551.2168      -29162.864      1407.34      
    398000   3629.2868     -591.45131      0             -546.88471     -44480.68       1405.0567    
    399000   3272.7726     -592.84928      0             -552.66057     -11815.39       1334.8178    
    400000   3204.6069     -584.24638      0             -544.89472      19522.064      1291.744     
Loop time of 6.81977 on 1 procs for 80000 steps with 96 atoms

Performance: 1013.525 ns/day, 0.024 hours/ns, 11730.609 timesteps/s, 1.126 Matom-step/s
97.3% CPU use with 1 MPI tasks x no OpenMP threads

MPI task timing breakdown:
Section |  min time  |  avg time  |  max time  |%varavg| %total
---------------------------------------------------------------
Pair    | 5.7717     | 5.7717     | 5.7717     |   0.0 | 84.63
Bond    | 0.0027893  | 0.0027893  | 0.0027893  |   0.0 |  0.04
Neigh   | 0.33056    | 0.33056    | 0.33056    |   0.0 |  4.85
Comm    | 0.20964    | 0.20964    | 0.20964    |   0.0 |  3.07
Output  | 0.0097532  | 0.0097532  | 0.0097532  |   0.0 |  0.14
Modify  | 0.4584     | 0.4584     | 0.4584     |   0.0 |  6.72
Other   |            | 0.0369     |            |       |  0.54

Nlocal:             96 ave          96 max          96 min
Histogram: 1 0 0 0 0 0 0 0 0 0
Nghost:            553 ave         553 max         553 min
Histogram: 1 0 0 0 0 0 0 0 0 0
Neighs:              0 ave           0 max           0 min
Histogram: 1 0 0 0 0 0 0 0 0 0
FullNghs:         3250 ave        3250 max        3250 min
Histogram: 1 0 0 0 0 0 0 0 0 0

Total # of neighbors = 3250
Ave neighs/atom = 33.854167
Ave special neighs/atom = 0
Neighbor list builds = 2521
Dangerous builds = 0

fix npt1 all npt temp 3000 2000 0.1 iso 0 0 1
run 80000
Per MPI rank memory allocation (min/avg/max) = 8.549 | 8.549 | 8.549 Mbytes
   Step          Temp          E_pair         E_mol          TotEng         Press          Volume    
    400000   3204.6069     -584.24638      0             -544.89472      19522.064      1291.744     
    401000   2830.8832     -591.59428      0             -556.83184     -37974.059      1344.0536    
    402000   3281.6542     -590.54618      0             -550.24841     -8389.8389      1320.8997    
    403000   2510.4346     -588.15923      0             -557.33181      16519.12       1313.2456    
    404000   2947.5365     -594.11946      0             -557.92456     -18974.779      1358.1305    
    405000   2863.2332     -586.26371      0             -551.10403     -35969.609      1382.5135    
    406000   2816.4003     -587.94541      0             -553.36082     -3756.7323      1368.0533    
    407000   2855.3118     -597.62482      0             -562.56241     -10889.061      1320.8445    
    408000   3196.8431     -592.49182      0             -553.2355      -32910.367      1364.8029    
    409000   2845.9249     -592.13898      0             -557.19183     -8993.3036      1356.5943    
    410000   2661.8702     -589.18177      0             -556.49476     -11077.866      1356.5428    
    411000   2463.7754     -592.39538      0             -562.14093     -17494.425      1354.9598    
    412000   2794.9476     -592.7198       0             -558.39865      8571.6774      1297.0635    
    413000   2746.2458     -594.97722      0             -561.25411     -9716.394       1356.4895    
    414000   2681.0458     -591.24168      0             -558.31921      7185.7533      1309.3847    
    415000   3203.0294     -591.48927      0             -552.15699     -7315.3201      1367.8737    
    416000   3085.5853     -595.92475      0             -558.03465     -25848.538      1380.3943    
    417000   2756.5364     -594.40774      0             -560.55826      6797.9818      1337.2249    
    418000   2857.3056     -592.38676      0             -557.29987      3485.6098      1309.9464    
    419000   2872.4138     -586.24072      0             -550.9683       18149.449      1304.5217    
    420000   2304.1918     -591.46207      0             -563.16725      9432.1722      1306.5578    
    421000   3091.3986     -594.413        0             -556.45151      14082.928      1281.7142    
    422000   2543.1243     -596.46059      0             -565.23175      94129.509      1252.7033    
    423000   2557.5427     -601.10029      0             -569.6944       6935.187       1305.3847    
    424000   2892.1427     -593.20453      0             -557.68985     -30536.264      1355.0011    
    425000   3046.4392     -596.15422      0             -558.74482      31531.079      1272.3091    
    426000   2673.4277     -599.02291      0             -566.19399      54066.824      1272.1635    
    427000   2536.97       -592.32851      0             -561.17524     -12291.822      1307.7983    
    428000   2840.2457     -595.32371      0             -560.44631     -57549.492      1299.7168    
    429000   2840.5074     -595.19926      0             -560.31864      14290.79       1267.6116    
    430000   2661.5282     -598.51241      0             -565.8296       25152.211      1221.4562    
    431000   2654.9302     -594.03376      0             -561.43198     -24530.572      1296.5339    
    432000   2481.6973     -591.63718      0             -561.16265     -41001.494      1294.987     
    433000   2610.0966     -599.72067      0             -567.66943      7311.4626      1262.8881    
    434000   2810.5603     -596.60708      0             -562.0942      -11928.851      1277.669     
    435000   2475.3984     -597.98203      0             -567.58484      8646.3653      1272.5691    
    436000   2466.896      -600.24373      0             -569.95095     -15971.128      1255.9207    
    437000   2567.7604     -602.44907      0             -570.91771     -25551.672      1258.0647    
    438000   2876.6967     -599.10383      0             -563.77882     -37905.785      1317.0574    
    439000   2448.988      -597.76955      0             -567.69668      14627.492      1251.6987    
    440000   2323.865      -599.05098      0             -570.51458      33634.297      1298.7849    
    441000   2580.4374     -600.21402      0             -568.52698     -1765.5957      1266.8295    
    442000   2546.5339     -601.6833       0             -570.41259     -2886.8279      1301.8186    
    443000   2659.6932     -594.87433      0             -562.21406      18150.919      1267.8819    
    444000   2510.252      -601.02537      0             -570.20019     -28539.887      1299.4758    
    445000   2399.1774     -600.49542      0             -571.03421     -11486.06       1304.5001    
    446000   2435.4929     -598.29604      0             -568.38888      11199.684      1285.9456    
    447000   2450.8107     -600.37764      0             -570.28239      29397.382      1240.0998    
    448000   2412.706      -603.35207      0             -573.72473     -26953.637      1332.9135    
    449000   2596.8334     -597.23433      0             -565.34596      22747.92       1314.2812    
    450000   2087.9841     -597.09516      0             -571.45531     -1760.7265      1287.6875    
    451000   2469.5551     -598.21771      0             -567.89229      1280.6107      1300.9526    
    452000   2516.0388     -601.86616      0             -570.96993      27308.591      1287.8022    
    453000   2359.9126     -600.87562      0             -571.89657      16853.406      1236.8303    
    454000   2449.6946     -596.42992      0             -566.34837      18055.905      1273.7344    
    455000   2464.7025     -597.73666      0             -567.47082     -5123.6872      1336.5969    
    456000   2052.5756     -599.7091       0             -574.50406     -29373.845      1309.5032    
    457000   2264.6294     -598.05512      0             -570.24612      23447.875      1304.6949    
    458000   1993.3498     -601.25333      0             -576.77556      8261.326       1316.4554    
    459000   2307.0162     -596.54241      0             -568.21291     -42943.207      1321.4757    
    460000   2043.5634     -599.25184      0             -574.15747      457.30235      1305.04      
    461000   2697.4683     -597.28511      0             -564.16097      17155.117      1246.3776    
    462000   2366.631      -600.61755      0             -571.556        8402.2216      1276.6544    
    463000   2199.1384     -600.71435      0             -573.70955     -16672.939      1323.8609    
    464000   2005.6976     -600.68087      0             -576.05148      1655.5844      1278.2671    
    465000   2136.8514     -608.3251       0             -582.08518      15662.745      1272.777     
    466000   1999.1465     -600.41794      0             -575.86899     -1362.623       1269.769     
    467000   1834.4539     -603.11063      0             -580.58406     -21644.764      1300.5311    
    468000   2059.0667     -597.27997      0             -571.99522     -18830.4        1321.6837    
    469000   1892.1184     -601.7411       0             -578.50643      17592.909      1252.2645    
    470000   1901.5534     -604.50143      0             -581.1509       379.11173      1266.1885    
    471000   2400.2021     -606.75472      0             -577.28092     -21085.15       1287.6407    
    472000   1997.1283     -604.49187      0             -579.9677      -21270.568      1268.9574    
    473000   2176.4495     -608.74043      0             -582.01426      23916.239      1237.8257    
    474000   1954.8164     -601.79795      0             -577.79336      34481.887      1254.9221    
    475000   2124.7108     -603.01073      0             -576.91989     -27320.441      1260.9022    
    476000   1859.459      -606.99959      0             -584.16596      26785.276      1193.1942    
    477000   1851.3098     -602.49404      0             -579.76048     -20750.729      1263.9011    
    478000   1952.0092     -602.80396      0             -578.83384     -9764.1527      1268.9816    
    479000   1876.2054     -609.14224      0             -586.10297     -7682.0833      1232.423     
    480000   1908.8816     -606.49597      0             -583.05545     -55.200985      1227.1242    
Loop time of 7.50615 on 1 procs for 80000 steps with 96 atoms

Performance: 920.845 ns/day, 0.026 hours/ns, 10657.926 timesteps/s, 1.023 Matom-step/s
96.7% CPU use with 1 MPI tasks x no OpenMP threads

MPI task timing breakdown:
Section |  min time  |  avg time  |  max time  |%varavg| %total
---------------------------------------------------------------
Pair    | 6.4466     | 6.4466     | 6.4466     |   0.0 | 85.88
Bond    | 0.0029993  | 0.0029993  | 0.0029993  |   0.0 |  0.04
Neigh   | 0.29602    | 0.29602    | 0.29602    |   0.0 |  3.94
Comm    | 0.2181     | 0.2181     | 0.2181     |   0.0 |  2.91
Output  | 0.0097511  | 0.0097511  | 0.0097511  |   0.0 |  0.13
Modify  | 0.49122    | 0.49122    | 0.49122    |   0.0 |  6.54
Other   |            | 0.04149    |            |       |  0.55

Nlocal:             96 ave          96 max          96 min
Histogram: 1 0 0 0 0 0 0 0 0 0
Nghost:            552 ave         552 max         552 min
Histogram: 1 0 0 0 0 0 0 0 0 0
Neighs:              0 ave           0 max           0 min
Histogram: 1 0 0 0 0 0 0 0 0 0
FullNghs:         3490 ave        3490 max        3490 min
Histogram: 1 0 0 0 0 0 0 0 0 0

Total # of neighbors = 3490
Ave neighs/atom = 36.354167
Ave special neighs/atom = 0
Neighbor list builds = 2166
Dangerous builds = 0

fix npt1 all npt temp 2000 2000 0.1 iso 0 0 1
run 80000
Per MPI rank memory allocation (min/avg/max) = 8.549 | 8.549 | 8.549 Mbytes
   Step          Temp          E_pair         E_mol          TotEng         Press          Volume    
    480000   1908.8816     -606.49597      0             -583.05545     -55.200985      1227.1242    
    481000   2082.2329     -604.95969      0             -579.39046     -37927.1        1264.473     
    482000   2066.261      -608.20833      0             -582.83524     -18076.984      1209.6532    
    483000   2309.4927     -606.28275      0             -577.92284      17874.533      1245.8253    
    484000   1892.4231     -607.00943      0             -583.77102     -9171.1879      1238.0303    
    485000   2111.6558     -604.99367      0             -579.06314     -2003.6967      1216.5993    
    486000   1999.294      -608.81329      0             -584.26253     -4653.6091      1221.0556    
    487000   1939.9727     -605.96055      0             -582.13824     -11532.179      1235.9762    
    488000   2277.407      -609.05939      0             -581.09348      15980.369      1226.3389    
    489000   2060.1176     -604.87076      0             -579.5731      -13175.606      1221.9219    
    490000   2059.5028     -607.57615      0             -582.28605      31924.844      1205.3256    
    491000   1816.4363     -606.9331       0             -584.62778     -38589.331      1299.929     
    492000   1750.8878     -602.13083      0             -580.63043      9505.3743      1198.5652    
    493000   1948.2305     -602.51168      0             -578.58796     -13859.67       1276.2244    
    494000   2050.9065     -607.53124      0             -582.3467       9840.7959      1247.3773    
    495000   2160.7744     -606.4539       0             -579.92021     -25514.833      1279.9475    
    496000   1941.5006     -606.22075      0             -582.37967     -12718.823      1250.0526    
    497000   1970.8213     -601.61903      0             -577.41791     -3908.8714      1265.4017    
    498000   1976.7131     -607.77782      0             -583.50435     -8133.4881      1243.9537    
    499000   1769.4703     -607.83777      0             -586.10918     -11306.121      1254.6785    
    500000   1925.1527     -601.66363      0             -578.0233      -527.06808      1225.7935    
    501000   1624.8439     -603.71706      0             -583.76444     -26299.532      1284.8993    
    502000   1991.598      -603.0606       0             -578.60435     -9682.4897      1253.6927    
    503000   2103.8284     -605.35419      0             -579.51978      18587.867      1226.0141    
    504000   1996.5314     -605.11463      0             -580.5978      -37707.32       1268.6802    
    505000   1896.6785     -608.34251      0             -585.05184      14333.88       1246.7042    
    506000   1929.2873     -607.28655      0             -583.59546     -16657.445      1254.767     
    507000   2255.9619     -604.85992      0             -577.15735      35029.769      1223.8407    
    508000   2027.3864     -605.77719      0             -580.88147     -23384.658      1263.5492    
    509000   2041.1486     -604.28031      0             -579.21559     -41569.839      1235.4934    
    510000   2052.4015     -605.22831      0             -580.02541     -8873.8661      1236.9449    
    511000   1856.2237     -606.78304      0             -583.98915      7614.5893      1227.6831    
    512000   2105.1863     -607.11733      0             -581.26625     -25562.467      1269.9707    
    513000   1725.0052     -611.95047      0             -590.76789      16686.976      1221.5648    
    514000   2004.6461     -605.85463      0             -581.23815     -20091.574      1259.5183    
    515000   2215.3979     -606.44032      0             -579.23587      1632.3103      1250.3511    
    516000   2038.178      -608.05979      0             -583.03154      19302.65       1228.857     
    517000   1903.3306     -602.96392      0             -579.59156     -4396.5222      1252.0306    
    518000   1803.9773     -608.27995      0             -586.12763      1453.1931      1224.04      
    519000   2226.8488     -603.01012      0             -575.66505     -38826.627      1287.3114    
    520000   2028.9864     -608.2035       0             -583.28812      17595.181      1203.3136    
    521000   2073.9162     -607.84523      0             -582.37813      717.84989      1262.7875    
    522000   1875.7922     -604.52667      0             -581.49248     -22277.196      1245.7089    
    523000   1844.1693     -604.11692      0             -581.47105      19279.978      1240.4644    
    524000   1949.0124     -604.90648      0             -580.97317     -24819.606      1285.2634    
    525000   2249.1665     -604.72793      0             -577.10881     -12489.351      1243.407     
    526000   2069.8204     -607.98045      0             -582.56365      16968.548      1259.1435    
    527000   1768.613      -604.8112       0             -583.09314     -7690.8133      1272.2057    
    528000   1981.9552     -604.13204      0             -579.79419      1951.0089      1234.9992    
    529000   1730.4932     -605.89751      0             -584.64755      11596.56       1240.9489    
    530000   2122.344      -598.50451      0             -572.44273     -38395.553      1307.9321    
    531000   1873.6875     -605.88323      0             -582.87488      284.00899      1246.7375    
    532000   2231.5322     -604.74012      0             -577.33755     -10861.067      1266.3176    
    533000   1953.3683     -607.85776      0             -583.87095      16810.472      1260.6886    
    534000   2177.832      -604.19178      0             -577.44863     -6764.2759      1276.1792    
    535000   1947.6528     -608.75065      0             -584.83403      22092.268      1249.7744    
    536000   1949.4491     -604.09531      0             -580.15664     -9104.2689      1253.3985    
    537000   1990.4474     -609.58059      0             -585.13847      11081.797      1226.2595    
    538000   2013.6501     -605.26521      0             -580.53816     -38296.925      1295.6776    
    539000   1968.3845     -606.40584      0             -582.23465     -14058.361      1221.4377    
    540000   2052.2646     -602.94067      0             -577.73945      18736.767      1226.8929    
    541000   1920.316      -610.0082       0             -586.42727     -22329.7        1247.7353    
    542000   1863.6106     -603.83055      0             -580.94594      10342.672      1226.8304    
    543000   1756.7432     -610.2691       0             -588.6968      -13822.704      1223.4943    
    544000   2217.0218     -606.60492      0             -579.38052      1700.0652      1253.1022    
    545000   1934.4708     -606.86017      0             -583.10542     -21954.502      1228.9751    
    546000   2210.424      -603.5739       0             -576.43053     -29682.389      1253.7113    
    547000   1989.3761     -609.41436      0             -584.98539      24604.687      1221.9659    
    548000   1581.7378     -608.7682       0             -589.34491     -10609.01       1249.1523    
    549000   1994.6645     -607.24034      0             -582.74643     -10328.027      1218.7129    
    550000   1991.493      -608.95753      0             -584.50257     -19800.89       1243.4978    
    551000   1978.1183     -606.55258      0             -582.26185      11612.579      1256.3308    
    552000   1734.23       -606.41004      0             -585.11419      17426.044      1233.0409    
    553000   1882.8929     -608.70953      0             -585.58814      6143.8719      1238.8917    
    554000   2092.9243     -607.28253      0             -581.58202      25163.376      1227.5991    
    555000   2099.5705     -606.77176      0             -580.98963     -27938.516      1247.6006    
    556000   1923.2181     -606.43975      0             -582.82318      30688.822      1237.0765    
    557000   2399.9807     -606.82785      0             -577.35677      13883.363      1234.1806    
    558000   1855.8503     -604.53817      0             -581.74886     -5028.1842      1239.3269    
    559000   1959.4155     -611.08483      0             -587.02377     -11246.356      1244.4183    
    560000   2249.3674     -609.8999       0             -582.27831     -480.68128      1235.9928    
Loop time of 7.2005 on 1 procs for 80000 steps with 96 atoms

Performance: 959.933 ns/day, 0.025 hours/ns, 11110.333 timesteps/s, 1.067 Matom-step/s
99.5% CPU use with 1 MPI tasks x no OpenMP threads

MPI task timing breakdown:
Section |  min time  |  avg time  |  max time  |%varavg| %total
---------------------------------------------------------------
Pair    | 6.2537     | 6.2537     | 6.2537     |   0.0 | 86.85
Bond    | 0.0026237  | 0.0026237  | 0.0026237  |   0.0 |  0.04
Neigh   | 0.23782    | 0.23782    | 0.23782    |   0.0 |  3.30
Comm    | 0.20678    | 0.20678    | 0.20678    |   0.0 |  2.87
Output  | 0.0097338  | 0.0097338  | 0.0097338  |   0.0 |  0.14
Modify  | 0.45628    | 0.45628    | 0.45628    |   0.0 |  6.34
Other   |            | 0.03356    |            |       |  0.47

Nlocal:             96 ave          96 max          96 min
Histogram: 1 0 0 0 0 0 0 0 0 0
Nghost:            552 ave         552 max         552 min
Histogram: 1 0 0 0 0 0 0 0 0 0
Neighs:              0 ave           0 max           0 min
Histogram: 1 0 0 0 0 0 0 0 0 0
FullNghs:         3390 ave        3390 max        3390 min
Histogram: 1 0 0 0 0 0 0 0 0 0

Total # of neighbors = 3390
Ave neighs/atom = 35.3125
Ave special neighs/atom = 0
Neighbor list builds = 1772
Dangerous builds = 0

fix npt1 all npt temp 2000 1000 0.1 iso 0 0 1
run 80000
Per MPI rank memory allocation (min/avg/max) = 8.549 | 8.549 | 8.549 Mbytes
   Step          Temp          E_pair         E_mol          TotEng         Press          Volume    
    560000   2249.3674     -609.8999       0             -582.27831     -480.68128      1235.9928    
    561000   1929.5858     -610.88825      0             -587.19349      14781.827      1242.6375    
    562000   2158.6316     -607.60872      0             -581.10134      46566.846      1239.5685    
    563000   2601.2774     -609.03489      0             -577.09195      43333.122      1205.0835    
    564000   1818.1946     -606.36365      0             -584.03675      61970.807      1235.3585    
    565000   2026.4868     -609.24798      0             -584.3633      -18454.794      1221.7875    
    566000   1703.1832     -609.63692      0             -588.72232      225.37394      1260.1854    
    567000   1816.795      -607.76791      0             -585.45818     -10048.023      1212.9032    
    568000   2129.6728     -605.95627      0             -579.8045       10115.555      1235.0734    
    569000   1965.4674     -607.37258      0             -583.2372      -12554.508      1233.7044    
    570000   1681.6816     -608.29892      0             -587.64835      1331.6913      1231.049     
    571000   1885.4273     -605.89804      0             -582.74553     -34624.376      1242.351     
    572000   1914.5432     -611.02138      0             -587.51133     -655.92288      1222.3121    
    573000   1768.0834     -609.02653      0             -587.31498      8512.3686      1232.4889    
    574000   1799.0671     -611.91965      0             -589.82762      9755.554       1222.1336    
    575000   2294.0383     -607.192        0             -579.02187     -20462.582      1242.861     
    576000   1732.8572     -610.46677      0             -589.18778      6667.1259      1225.4541    
    577000   1778.6461     -608.47286      0             -586.63159      26493.092      1245.1493    
    578000   1724.393      -609.53574      0             -588.36069      30249.039      1230.2812    
    579000   1819.0315     -607.39267      0             -585.05548     -33008.695      1236.4456    
    580000   1734.5531     -609.33693      0             -588.03711      18576.403      1213.3086    
    581000   1858.4858     -609.22496      0             -586.40328     -11603.478      1250.2398    
    582000   1632.8369     -609.76511      0             -589.71434     -12845.296      1241.2759    
    583000   1492.5851     -609.89997      0             -591.57145     -14728.161      1228.4323    
    584000   1805.4482     -610.12683      0             -587.95645     -13753.29       1246.7262    
    585000   1720.7794     -609.06314      0             -587.93246     -14759.092      1217.2744    
    586000   1678.3683     -613.84027      0             -593.23039     -3005.0173      1249.0078    
    587000   1868.7522     -614.23752      0             -591.28978      11269.46       1204.125     
    588000   1545.6207     -611.6022       0             -592.62242     -31299.267      1256.307     
    589000   1531.3887     -615.24114      0             -596.43613      20706.068      1205.5368    
    590000   1674.1432     -610.07434      0             -589.51634     -32257.878      1239.174     
    591000   1614.9793     -612.96957      0             -593.13809     -19085.896      1248.2547    
    592000   1875.0445     -613.03293      0             -590.00792      13076.01       1199.462     
    593000   1648.0128     -613.04088      0             -592.80375     -18553.109      1242.2064    
    594000   1515.1246     -612.69825      0             -594.09296      16038.564      1205.5019    
    595000   1484.473      -609.71121      0             -591.4823       22057.884      1217.0623    
    596000   1313.8742     -616.02295      0             -599.88895      32211.296      1214.6461    
    597000   1489.2898     -610.15146      0             -591.86341     -38059.167      1250.5064    
    598000   1548.3477     -613.0312       0             -594.01793      18964.492      1196.5262    
    599000   1435.662      -615.10504      0             -597.47552     -31945.293      1260.2515    
    600000   1544.1428     -614.83897      0             -595.87733      10308.694      1197.0133    
    601000   1507.6102     -612.31019      0             -593.79717     -7989.2407      1227.3423    
    602000   1399.7598     -612.9692       0             -595.78055     -1155.9685      1217.6426    
    603000   1491.7144     -614.09295      0             -595.77513     -26740.115      1248.3441    
    604000   1502.4921     -613.67227      0             -595.22209      11259.304      1198.728     
    605000   1411.194      -614.17186      0             -596.8428      -23081.743      1252.6594    
    606000   1279.1302     -613.76578      0             -598.05843      29252.721      1193.6314    
    607000   1123.3436     -614.86955      0             -601.07521     -30763.034      1224.1949    
    608000   1484.4268     -616.22394      0             -597.9956      -30658.364      1233.9114    
    609000   1295.1224     -616.32291      0             -600.41918      2340.9041      1211.4377    
    610000   1533.2065     -615.51487      0             -596.68753     -5276.3315      1229.7461    
    611000   1387.6981     -616.5674       0             -599.52686      13450.235      1211.1917    
    612000   1420.6514     -612.49041      0             -595.04522     -13403.006      1227.7923    
    613000   1293.9456     -615.70198      0             -599.8127       4106.3828      1212.7305    
    614000   1413.1467     -615.32515      0             -597.97212      8363.1514      1223.9112    
    615000   1320.0337     -615.0418       0             -598.83216      3094.2216      1202.1241    
    616000   1375.7677     -617.16211      0             -600.26807     -5608.1122      1228.1312    
    617000   1353.9592     -616.72039      0             -600.09416     -3462.0491      1218.1036    
    618000   1297.9036     -617.40955      0             -601.47167      9737.1101      1215.2025    
    619000   1424.2592     -616.16705      0             -598.67755     -3137.9002      1219.1629    
    620000   1285.7898     -618.93439      0             -603.14526     -1160.0478      1221.1078    
    621000   1188.0842     -615.44938      0             -600.86004      11233.346      1215.6756    
    622000   901.35285     -617.78636      0             -606.718       -20628.817      1221.8323    
    623000   1245.3282     -616.21276      0             -600.92049      5122.383       1227.2407    
    624000   1099.4258     -619.26399      0             -605.76336      12352.999      1211.5123    
    625000   1231.1688     -618.03142      0             -602.91302     -11892.834      1225.3059    
    626000   1114.3184     -615.84572      0             -602.16221      20093.592      1198.2957    
    627000   1056.9028     -619.54057      0             -606.56211     -30461.423      1246.9308    
    628000   1070.1983     -617.18553      0             -604.0438      -5096.9442      1205.571     
    629000   1082.0801     -618.26827      0             -604.98064      9850.0298      1220.3813    
    630000   1204.9709     -620.99978      0             -606.20308      9471.4434      1199.0366    
    631000   1238.5833     -617.35353      0             -602.14408     -35324.065      1240.448     
[...]
Neighs:              0 ave           0 max           0 min
Histogram: 1 0 0 0 0 0 0 0 0 0
FullNghs:         3574 ave        3574 max        3574 min
Histogram: 1 0 0 0 0 0 0 0 0 0

Total # of neighbors = 3574
Ave neighs/atom = 37.229167
Ave special neighs/atom = 0
Neighbor list builds = 48
Dangerous builds = 0


fix npt1 all npt temp 500 10 0.1 iso 0 0 1
run 80000
Per MPI rank memory allocation (min/avg/max) = 8.549 | 8.549 | 8.549 Mbytes
   Step          Temp          E_pair         E_mol          TotEng         Press          Volume    
    880000   498.86279     -626.97857      0             -620.85268      16045.529      1182.757     
    881000   558.02372     -626.35324      0             -619.50087      4069.4422      1207.3108    
    882000   501.39842     -627.27426      0             -621.11723     -10773.958      1205.0639    
    883000   495.0653      -626.65275      0             -620.57349      6858.5877      1195.9191    
    884000   469.22737     -627.34962      0             -621.58764     -7287.2965      1204.0885    
    885000   442.16319     -626.20365      0             -620.77402     -2112.4055      1199.4234    
    886000   483.64658     -627.63103      0             -621.69199     -14166.059      1211.7958    
    887000   441.8735      -626.98991      0             -621.56383     -15359.969      1213.8697    
    888000   412.83518     -626.4027       0             -621.3332       16023.913      1186.6194    
    889000   486.47411     -627.40557      0             -621.43181     -4994.8973      1202.9961    
    890000   404.59725     -627.47574      0             -622.5074       15318.079      1194.451     
    891000   405.8851      -627.80994      0             -622.82579      5735.6026      1183.6927    
    892000   457.70042     -627.39505      0             -621.77462     -6822.7598      1212.2754    
    893000   465.35273     -627.41811      0             -621.70371     -5482.3146      1206.8406    
    894000   459.75015     -628.03772      0             -622.39212     -2932.1924      1198.6776    
    895000   391.48421     -628.49391      0             -623.6866       10911.934      1194.5351    
    896000   414.39116     -628.18691      0             -623.09831     -16460.805      1202.7247    
    897000   387.57974     -628.60804      0             -623.84868      24199.002      1191.3228    
    898000   382.98006     -627.66203      0             -622.95914      7424.9073      1201.6349    
    899000   378.26004     -628.12558      0             -623.48066      15470.208      1213.2959    
    900000   341.13193     -628.44692      0             -624.25792     -6308.4341      1197.0541    
    901000   353.76604     -627.97837      0             -623.63423      7356.814       1200.5577    
    902000   363.38971     -628.39115      0             -623.92883     -10218.74       1195.2204    
    903000   318.91403     -629.28778      0             -625.37161      5590.8139      1189.5733    
    904000   405.81148     -629.22955      0             -624.24631      18405.706      1175.025     
    905000   346.91991     -629.97159      0             -625.71151     -13138.681      1193.7115    
    906000   308.32365     -628.34853      0             -624.56241      18180.046      1200.0071    
    907000   349.48378     -628.83278      0             -624.54122     -1212.6299      1194.414     
    908000   347.96247     -629.43919      0             -625.16631      2421.8306      1193.4018    
    909000   353.6303      -628.42646      0             -624.08398      11234.765      1205.0765    
    910000   308.23731     -629.12423      0             -625.33917     -9516.7398      1202.8275    
    911000   304.56001     -629.19544      0             -625.45553      479.00063      1198.7835    
    912000   295.60165     -629.64305      0             -626.01315     -8312.0107      1201.1061    
    913000   302.16692     -629.45213      0             -625.74161     -1061.9914      1191.2247    
    914000   321.77739     -629.67089      0             -625.71956      2126.6369      1188.9261    
    915000   286.03913     -629.65172      0             -626.13924      10091.021      1185.3794    
    916000   312.16545     -629.20763      0             -625.37432      5814.4082      1186.3763    
    917000   275.32479     -629.78751      0             -626.4066      -9289.7707      1188.5291    
    918000   269.4111      -629.76606      0             -626.45777      8777.0502      1192.2807    
    919000   259.99628     -630.28382      0             -627.09114      20475.003      1184.7769    
    920000   234.86501     -630.1669       0             -627.28282      1069.0457      1196.3136    
    921000   249.13534     -629.91086      0             -626.85155     -6455.8165      1198.8994    
    922000   221.63619     -630.31894      0             -627.59731      3551.647       1186.8198    
    923000   251.95396     -630.35056      0             -627.25663      7251.486       1187.3981    
    924000   261.61427     -630.50196      0             -627.28941     -3473.4594      1202.4889    
    925000   193.1347      -629.96684      0             -627.5952      -3941.8292      1191.8453    
    926000   221.06178     -630.1818       0             -627.46723     -3990.0993      1196.2043    
    927000   220.89078     -630.94978      0             -628.23731      4469.2932      1193.4374    
    928000   211.30034     -631.03169      0             -628.43698     -4530.6794      1197.2431    
    929000   193.60506     -630.4924       0             -628.11498     -5117.9215      1196.563     
    930000   190.95446     -630.86187      0             -628.517       -5065.272       1198.8683    
    931000   213.6514      -630.94549      0             -628.32192     -1105.6564      1184.7453    
    932000   153.59585     -630.83204      0             -628.94593      5832.4378      1188.1671    
    933000   183.19143     -631.31624      0             -629.0667      -4971.4525      1192.086     
    934000   184.10017     -631.04754      0             -628.78684      3525.9879      1190.2654    
    935000   167.29359     -631.19495      0             -629.14064      12377.133      1185.2878    
    936000   157.27361     -631.12915      0             -629.19787     -1094.69        1193.9629    
    937000   142.13019     -631.4641       0             -629.71879      8855.2275      1182.6621    
    938000   143.46677     -631.60513      0             -629.84339      2266.8553      1191.7529    
    939000   141.37986     -631.31586      0             -629.57976     -4547.2657      1189.005     
    940000   144.41        -631.45362      0             -629.6803       5378.5918      1185.8217    
    941000   113.20771     -631.58343      0             -630.19327      1381.8891      1188.2141    
    942000   121.62127     -631.88086      0             -630.38738     -3238.4776      1191.1856    
    943000   124.00063     -631.63486      0             -630.11217     -5221.06        1192.514     
    944000   109.7448      -631.95686      0             -630.60922     -13331.333      1191.0653    
    945000   99.157993     -631.98177      0             -630.76414     -1594.0237      1190.9902    
    946000   103.28641     -631.96222      0             -630.69389      9453.5133      1179.9761    
    947000   99.649673     -631.97599      0             -630.75232      9365.1791      1186.6812    
    948000   82.147957     -632.01615      0             -631.0074       2527.5451      1188.1135    
    949000   75.465283     -632.19995      0             -631.27326     -2826.9139      1190.5176    
    950000   77.919114     -632.19095      0             -631.23413      853.92838      1190.8061    
    951000   66.208359     -632.44823      0             -631.63521     -5266.5922      1191.3717    
    952000   62.792486     -632.52147      0             -631.75039     -459.33017      1187.1275    
    953000   51.358849     -632.52297      0             -631.8923      -561.17372      1186.9347    
    954000   52.443851     -632.6085       0             -631.96451     -2048.994       1190.0097    
    955000   42.082741     -632.64636      0             -632.12959     -5509.6519      1188.3873    
    956000   36.565387     -632.75565      0             -632.30663     -577.2194       1184.5494    
    957000   27.582248     -632.78394      0             -632.44524      1200.0471      1184.4622    
    958000   21.127519     -632.87335      0             -632.61391      1532.5709      1184.2877    
    959000   17.85993      -632.96963      0             -632.75031     -536.70231      1184.0175    
    960000   10.871173     -633.04114      0             -632.90764      2860.1317      1184.4523    
Loop time of 6.39767 on 1 procs for 80000 steps with 96 atoms

Performance: 1080.393 ns/day, 0.022 hours/ns, 12504.550 timesteps/s, 1.200 Matom-step/s
99.3% CPU use with 1 MPI tasks x no OpenMP threads

MPI task timing breakdown:
Section |  min time  |  avg time  |  max time  |%varavg| %total
---------------------------------------------------------------
Pair    | 5.726      | 5.726      | 5.726      |   0.0 | 89.50
Bond    | 0.0026221  | 0.0026221  | 0.0026221  |   0.0 |  0.04
Neigh   | 0.00092747 | 0.00092747 | 0.00092747 |   0.0 |  0.01
Comm    | 0.18902    | 0.18902    | 0.18902    |   0.0 |  2.95
Output  | 0.0093031  | 0.0093031  | 0.0093031  |   0.0 |  0.15
Modify  | 0.44214    | 0.44214    | 0.44214    |   0.0 |  6.91
Other   |            | 0.02766    |            |       |  0.43

Nlocal:             96 ave          96 max          96 min
Histogram: 1 0 0 0 0 0 0 0 0 0
Nghost:            560 ave         560 max         560 min
Histogram: 1 0 0 0 0 0 0 0 0 0
Neighs:              0 ave           0 max           0 min
Histogram: 1 0 0 0 0 0 0 0 0 0
FullNghs:         3460 ave        3460 max        3460 min
Histogram: 1 0 0 0 0 0 0 0 0 0

Total # of neighbors = 3460
Ave neighs/atom = 36.041667
Ave special neighs/atom = 0
Neighbor list builds = 7
Dangerous builds = 0

fix npt1 all npt temp 10 10 0.1 iso 0 0 1
run 80000
Per MPI rank memory allocation (min/avg/max) = 8.549 | 8.549 | 8.549 Mbytes
   Step          Temp          E_pair         E_mol          TotEng         Press          Volume    
    960000   10.871173     -633.04114      0             -632.90764      2860.1317      1184.4523    
    961000   9.645987      -633.03619      0             -632.91774     -670.23964      1187.2689    
    962000   9.2583649     -633.02484      0             -632.91115     -2438.6897      1185.8431    
    963000   9.3065509     -633.03503      0             -632.92075     -330.0043       1185.5588    
    964000   9.4391295     -633.0178       0             -632.90189      6059.9146      1185.2765    
    965000   9.6559705     -633.05691      0             -632.93834      4162.2789      1183.7246    
    966000   11.076231     -633.0267       0             -632.89068     -2546.3935      1185.9902    
    967000   10.795612     -633.05178      0             -632.91922     -2669.0662      1186.8971    
    968000   10.187245     -633.04226      0             -632.91716     -1435.096       1185.5267    
    969000   10.908218     -633.06652      0             -632.93257      2871.4179      1182.0707    
    970000   9.1035504     -633.05973      0             -632.94794      470.19689      1185.9047    
    971000   10.257107     -633.04364      0             -632.91768     -3861.1792      1189.0165    
    972000   9.1923644     -633.05211      0             -632.93923     -1844.3622      1186.4265    
    973000   10.956998     -633.04439      0             -632.90984      1086.0721      1186.4521    
    974000   9.918555      -633.05128      0             -632.92948     -2146.6161      1184.4089    
    975000   10.565562     -633.03282      0             -632.90308      57.072911      1185.0491    
    976000   10.380756     -633.0468       0             -632.91933     -798.50797      1185.436     
    977000   10.528975     -633.03615      0             -632.90685     -1126.5802      1185.3964    
    978000   10.20769      -633.06249      0             -632.93715     -2636.7693      1187.6785    
    979000   9.7751797     -633.0428       0             -632.92277      1241.0116      1184.8014    
    980000   9.0476675     -633.04194      0             -632.93083      11.272484      1187.4635    
    981000   9.4253944     -633.0459       0             -632.93016      1199.4398      1184.9888    
    982000   10.800066     -633.05003      0             -632.9174      -1369.4689      1185.9701    
    983000   9.4770638     -633.05518      0             -632.9388       1058.8231      1184.018     
    984000   10.782594     -633.03083      0             -632.89842     -2541.0885      1186.6651    
    985000   9.149393      -633.04007      0             -632.92771      4785.9044      1183.3998    
    986000   11.334116     -633.03734      0             -632.89816     -1243.1397      1184.3682    
    987000   10.767797     -633.04842      0             -632.91619     -1516.9573      1185.7735    
    988000   10.15606      -633.06046      0             -632.93575      1376.9008      1183.5681    
    989000   10.468418     -633.04276      0             -632.91421     -1011.5161      1184.6559    
    990000   9.0368449     -633.05742      0             -632.94645     -461.6945       1184.744     
    991000   10.758201     -633.05432      0             -632.92221      270.41887      1184.0384    
    992000   9.6287077     -633.05432      0             -632.93608      1899.1697      1182.9032    
    993000   11.088667     -633.01745      0             -632.88128      624.40103      1182.0387    
    994000   9.8289644     -633.04823      0             -632.92754     -444.36313      1184.6422    
    995000   10.188114     -633.03141      0             -632.9063       334.80001      1185.4764    
    996000   9.4266539     -633.05841      0             -632.94265      2228.1139      1184.6644    
    997000   10.703377     -633.02652      0             -632.89509     -368.92862      1183.8328    
    998000   9.3035058     -633.03519      0             -632.92094     -994.32765      1186.7022    
    999000   9.2955927     -633.04775      0             -632.9336       5089.7821      1183.8753    
   1000000   10.480164     -633.05004      0             -632.92135     -17.639553      1185.1137    
   1001000   10.100685     -633.03572      0             -632.91168     -3208.0025      1186.0605    
   1002000   9.4681753     -633.04502      0             -632.92876     -350.59785      1186.3691    
   1003000   10.948402     -633.03987      0             -632.90543     -506.98547      1187.2193    
   1004000   10.011336     -633.04948      0             -632.92654      2037.0326      1183.9893    
   1005000   10.056666     -633.04406      0             -632.92057      876.99254      1184.9816    
   1006000   9.8464043     -633.04823      0             -632.92732      572.98771      1184.808     
   1007000   10.3912       -633.03684      0             -632.90924     -935.45294      1185.0052    
   1008000   9.8224681     -633.0247       0             -632.90408     -1576.0268      1184.7017    
   1009000   9.5110696     -633.04085      0             -632.92406      1101.4058      1184.3978    
   1010000   10.534688     -633.04731      0             -632.91795      1972.3808      1183.6117    
   1011000   10.097245     -633.03297      0             -632.90898     -737.89691      1183.9766    
   1012000   9.9102327     -633.04334      0             -632.92165     -3055.3253      1186.6845    
   1013000   9.6810268     -633.04733      0             -632.92845     -2075.3021      1186.2932    
   1014000   10.563597     -633.03648      0             -632.90676     -1344.0426      1184.8865    
   1015000   9.2977093     -633.05261      0             -632.93844      2506.6834      1185.5295    
   1016000   12.318251     -633.05254      0             -632.90128     -439.00783      1186.4536    
   1017000   7.5293242     -633.04612      0             -632.95366      2314.9745      1186.0061    
   1018000   10.407479     -633.04071      0             -632.91291     -272.94689      1185.7908    
   1019000   9.3988965     -633.04216      0             -632.92674     -3172.1398      1185.7953    
   1020000   8.9379853     -633.03081      0             -632.92105     -1173.7635      1184.9825    
   1021000   11.119456     -633.03523      0             -632.89869     -482.91353      1183.5887    
   1022000   8.9415231     -633.03443      0             -632.92464      3152.0973      1185.7708    
   1023000   9.8350514     -633.04066      0             -632.91988      1072.274       1186.3759    
   1024000   9.6223571     -633.06966      0             -632.9515       270.08272      1184.8963    
   1025000   10.126418     -633.03812      0             -632.91377      283.88554      1185.3869    
   1026000   8.5073696     -633.05525      0             -632.95078      1283.5192      1185.5615    
   1027000   10.392875     -633.04292      0             -632.9153       2639.9422      1183.892     
   1028000   10.809768     -633.01927      0             -632.88653     -1987.4237      1186.0932    
   1029000   9.9182478     -633.04779      0             -632.926       -1872.5965      1186.1443    
   1030000   11.015032     -633.05017      0             -632.91491     -878.40802      1185.6365    
   1031000   10.748826     -633.05176      0             -632.91977     -693.29662      1185.8782    
   1032000   9.1170478     -633.0612       0             -632.94924      689.67667      1184.5417    
   1033000   9.7473415     -633.03488      0             -632.91519      3639.4675      1184.7812    
   1034000   9.9252617     -633.06191      0             -632.94003     -3784.1295      1186.8602    
   1035000   9.3569471     -633.03455      0             -632.91964     -2473.6224      1186.8247    
   1036000   10.342891     -633.03044      0             -632.90343      3093.3943      1183.5402    
   1037000   9.0618247     -633.03973      0             -632.92846      3403.9908      1185.4264    
   1038000   9.2289291     -633.04184      0             -632.92851     -2013.4512      1186.3718    
   1039000   10.79345      -633.02543      0             -632.89289      1902.897       1184.9981    
   1040000   10.978297     -633.05664      0             -632.92183      2615.9547      1186.2307    
Loop time of 6.67852 on 1 procs for 80000 steps with 96 atoms

Performance: 1034.961 ns/day, 0.023 hours/ns, 11978.710 timesteps/s, 1.150 Matom-step/s
98.6% CPU use with 1 MPI tasks x no OpenMP threads

MPI task timing breakdown:
Section |  min time  |  avg time  |  max time  |%varavg| %total
---------------------------------------------------------------
Pair    | 5.9819     | 5.9819     | 5.9819     |   0.0 | 89.57
Bond    | 0.0027124  | 0.0027124  | 0.0027124  |   0.0 |  0.04
Neigh   | 0          | 0          | 0          |   0.0 |  0.00
Comm    | 0.19442    | 0.19442    | 0.19442    |   0.0 |  2.91
Output  | 0.0097733  | 0.0097733  | 0.0097733  |   0.0 |  0.15
Modify  | 0.46005    | 0.46005    | 0.46005    |   0.0 |  6.89
Other   |            | 0.02966    |            |       |  0.44

Nlocal:             96 ave          96 max          96 min
Histogram: 1 0 0 0 0 0 0 0 0 0
Nghost:            562 ave         562 max         562 min
Histogram: 1 0 0 0 0 0 0 0 0 0
Neighs:              0 ave           0 max           0 min
Histogram: 1 0 0 0 0 0 0 0 0 0
FullNghs:         3546 ave        3546 max        3546 min
Histogram: 1 0 0 0 0 0 0 0 0 0

Total # of neighbors = 3546
Ave neighs/atom = 36.9375
Ave special neighs/atom = 0
Neighbor list builds = 0
Dangerous builds = 0


write_data amorphousSiO.data
System init for write_data ...


Total wall time: 0:01:30
