96
 Atoms. Timestep: 0
2 0 7.95642 4.74695
2 4.63304 0 11.358
2 0 4.63304 4.74695
2 7.95642 0 11.358
2 0 4.63304 8.47514
2 7.95642 0 1.8641
2 0 7.95642 8.47514
2 4.63304 0 1.8641
2 10.7421 8.43088 6.61105
2 4.15858 10.7421 0
2 1.84736 4.15858 6.61105
2 8.43088 1.84736 0
2 1.84736 8.43088 6.61105
2 8.43088 10.7421 0
2 10.7421 4.15858 6.61105
2 4.15858 1.84736 0
2 10.5201 6.29473 5.04003
2 6.29473 10.5201 11.6511
2 2.06934 6.29473 5.04003
2 6.29473 2.06934 11.6511
2 2.06934 6.29473 8.18207
2 6.29473 2.06934 1.57102
2 10.5201 6.29473 8.18207
2 6.29473 10.5201 1.57102
2 10.1594 8.65935 9.20274
2 3.93011 10.1594 2.59169
2 2.43004 3.93011 9.20274
2 8.65935 2.43004 2.59169
2 2.43004 8.65935 9.20274
2 8.65935 10.1594 2.59169
2 10.1594 3.93011 9.20274
2 3.93011 2.43004 2.59169
2 2.43004 3.93011 4.01936
2 8.65935 2.43004 10.6304
2 10.1594 8.65935 4.01936
2 3.93011 10.1594 10.6304
2 10.1594 3.93011 4.01936
2 3.93011 2.43004 10.6304
2 2.43004 8.65935 4.01936
2 8.65935 10.1594 10.6304
2 0 10.703 0
2 1.88643 0 6.61105
2 0 1.88643 0
2 10.703 0 6.61105
2 0 0 1.872
2 0 0 8.48305
2 0 0 11.3501
2 0 0 4.73905
2 11.2706 2.31295 2.18973
2 10.2765 11.2706 8.80078
2 1.31887 10.2765 2.18973
2 2.31295 1.31887 8.80078
2 1.31887 2.31295 2.18973
2 2.31295 11.2706 8.80078
2 11.2706 10.2765 2.18973
2 10.2765 1.31887 8.80078
2 1.31887 10.2765 11.0324
2 2.31295 1.31887 4.42131
2 11.2706 2.31295 11.0324
2 10.2765 11.2706 4.42131
2 11.2706 10.2765 11.0324
2 10.2765 1.31887 4.42131
2 1.31887 2.31295 11.0324
2 2.31295 11.2706 4.42131
1 11.0086 7.83654 8.10972
1 4.75292 11.0086 1.49867
1 1.5809 4.75292 8.10972
1 7.83654 1.5809 1.49867
1 1.5809 7.83654 8.10972
1 7.83654 11.0086 1.49867
1 11.0086 4.75292 8.10972
1 4.75292 1.5809 1.49867
1 1.5809 4.75292 5.11238
1 7.83654 1.5809 11.7234
1 11.0086 7.83654 5.11238
1 4.75292 11.0086 11.7234
1 11.0086 4.75292 5.11238
1 4.75292 1.5809 11.7234
1 1.5809 7.83654 5.11238
1 7.83654 11.0086 11.7234
1 10.1088 10.1088 3.30552
1 2.48067 10.1088 9.91657
1 2.48067 2.48067 3.30552
1 10.1088 2.48067 9.91657
1 2.48067 10.1088 3.30552
1 10.1088 10.1088 9.91657
1 10.1088 2.48067 3.30552
1 2.48067 2.48067 9.91657
1 0 1.60471 1.57853
1 10.9848 0 8.18958
1 0 10.9848 1.57853
1 1.60471 0 8.18958
1 0 10.9848 11.6436
1 1.60471 0 5.03252
1 0 1.60471 11.6436
1 10.9848 0 5.03252
96
 Atoms. Timestep: 2000
2 11.4237 7.62155 5.20934
2 4.90634 0.505772 12.1874
2 12.0946 1.67759 5.05374
2 8.56254 1.00711 11.331
2 0.355567 5.86296 8.77227
2 8.04581 0.397431 1.53902
2 4.50745 8.25756 7.2521
2 4.10273 0.261991 1.84664
2 9.22601 8.41982 7.16841
2 6.45955 11.115 2.23528
2 0.193546 3.61118 6.38055
2 7.98768 2.73547 12.9096
2 1.07863 5.56503 5.76813
2 9.29603 11.2969 13.0731
2 10.4926 5.46873 7.24722
2 4.49433 2.33375 13.1077
2 9.66253 6.27719 5.31157
2 6.81619 11.4583 11.5669
2 11.3824 5.72139 4.34028
2 6.12894 2.27676 10.9647
2 2.3008 5.75805 8.02823
2 6.2462 1.76707 1.38808
2 9.81485 6.72527 9.32505
2 7.17666 10.5421 0.29444
2 10.0976 9.36473 9.21905
2 3.80894 10.0828 2.82212
2 1.35116 3.24244 8.66887
2 8.94546 2.54397 2.58759
2 3.46104 8.47269 9.27874
2 9.19699 10.7887 2.01096
2 10.9962 4.73592 9.86446
2 3.43921 2.14716 2.26042
2 1.06526 2.49419 4.07888
2 8.81407 2.98658 10.4571
2 9.73351 9.10352 4.98823
2 4.0661 10.8225 11.168
2 10.3058 3.52437 4.73331
2 3.82957 2.54121 10.1862
2 0.983441 8.18737 3.71674
2 9.73719 11.1809 11.1366
2 12.2816 10.8858 13.1577
2 2.11082 12.4915 6.22639
2 12.2943 1.87173 13.1471
2 11.1014 12.6432 6.92678
2 11.9337 12.5076 1.93765
2 0.791772 0.37244 7.69995
2 -0.0153923 12.6153 11.4822
2 0.0104738 12.1016 5.0826
2 11.0111 2.33081 1.95521
2 11.0086 11.9798 8.87696
2 1.55914 10.1486 1.87642
2 2.6386 0.968777 8.5333
2 0.19268 1.54058 2.2195
2 2.33106 11.0171 9.03889
2 11.5052 9.77531 2.01272
2 11.458 1.89407 8.41453
2 1.80283 9.81101 11.2282
2 2.41941 0.661061 3.7682
2 11.6016 2.40532 11.1108
2 10.3879 11.3776 4.27867
2 11.9945 10.3944 10.5133
2 10.0783 1.07228 4.61162
2 1.40167 2.02969 10.763
2 2.15581 10.3807 4.49043
1 9.0689 8.27982 8.72054
1 4.85352 11.5029 2.61264
1 1.26837 4.61531 7.3756
1 7.99028 2.00734 1.16287
1 3.45839 7.20997 8.24099
1 7.88565 11.5291 1.61321
1 11.3398 6.15385 8.69747
1 4.65588 1.74984 1.21069
1 0.862559 2.14333 5.52643
1 7.5582 2.36793 11.3511
1 9.95961 7.8591 6.03732
1 5.33707 11.5068 11.8599
1 10.595 5.03319 5.63183
1 4.55044 2.21368 11.6253
1 0.239956 6.78103 4.65676
1 8.58453 12.1568 11.6588
1 10.0885 10.0381 3.37659
1 3.07338 10.1149 10.1343
1 1.86649 1.89523 2.80122
1 10.5703 3.10716 9.6869
1 2.06941 9.49529 3.46677
1 10.6164 10.8105 9.86525
1 10.1961 2.51821 3.66999
1 2.5459 2.24257 9.4291
1 11.6844 1.13866 1.10821
1 12.0142 0.125404 8.12049
1 12.6762 10.9315 1.50128
1 2.17048 12.3623 7.84136
1 0.309681 10.6044 11.7785
1 1.71212 11.9524 4.71437
1 12.6673 1.49516 11.5167
1 11.177 12.6729 5.20278
96
 Atoms. Timestep: 4000
2 10.6242 10.195 7.7034
2 3.72711 0.431866 11.2122
2 12.5559 2.24997 4.70123
2 6.85502 0.169301 11.7001
2 10.9699 7.19411 9.55677
2 8.72031 12.4321 1.91122
2 1.43875 6.75169 8.25246
2 4.71851 11.8695 0.970511
2 8.1588 8.91394 6.85402
2 6.43696 10.6002 2.49085
2 1.64795 4.12726 6.41382
2 8.43012 2.37809 12.8018
2 1.88332 6.55491 6.02284
2 7.67394 10.6923 0.0949383
2 11.1205 5.37404 6.44906
2 4.64011 1.35607 12.9253
2 10.7249 6.67833 4.33817
2 5.46356 11.117 12.466
2 -0.0973516 5.37914 4.16626
2 6.29082 2.03947 11.3859
2 1.4153 5.16787 10.8892
2 6.96992 1.19238 1.28738
2 9.18025 7.67797 8.43134
2 11.1343 8.81087 9.67986
2 9.01984 10.092 8.93858
2 3.55893 9.3451 1.96102
2 2.91103 4.55485 8.87713
2 9.21821 2.57373 1.76833
2 1.4536 8.37942 10.529
2 9.13302 10.3079 2.79332
2 10.5945 4.44684 8.45741
2 4.65232 1.38452 2.32951
2 2.75812 2.38896 4.03844
2 8.9784 2.43949 9.68592
2 9.60622 9.36663 4.67351
2 3.12341 11.0699 11.2606
2 10.0725 3.85863 4.31964
2 3.1816 3.43167 11.7516
2 1.95101 7.77754 3.33871
2 7.45087 9.96301 10.4735
2 11.9425 11.1591 0.18062
2 2.78878 11.5864 6.41287
2 0.757057 1.94321 -0.142067
2 11.131 0.707871 6.72036
2 0.624854 -0.00460498 1.40969
2 0.899601 12.911 7.67598
2 11.9828 0.470386 11.3637
2 12.0751 11.6062 4.56045
2 11.5387 2.02924 2.3666
2 11.4607 11.7358 8.87848
2 0.613692 10.3893 2.97183
2 5.38324 3.08083 9.9226
2 1.75917 1.73638 2.28383
2 1.85218 10.5275 8.71544
2 11.295 10.428 2.10751
2 11.1605 1.56767 8.7352
2 0.425475 11.208 11.1036
2 3.39938 12.5735 3.94736
2 10.9756 2.48373 10.9983
2 11.4946 8.7252 4.06794
2 10.9474 10.5076 10.9327
2 10.5583 1.13648 3.89992
2 0.989099 2.82681 10.6195
2 2.79127 10.0356 4.41122
1 7.70261 9.05167 8.89819
1 4.8875 10.5148 1.78414
1 2.34906 5.23465 7.34661
1 8.86276 1.45034 0.730048
1 1.12142 6.63169 10.1992
1 7.93459 11.0748 1.88085
1 10.2695 6.30809 7.84343
1 5.38168 0.770262 0.960058
1 1.29195 3.00385 4.94758
1 8.04296 1.58465 11.353
1 9.61401 9.8852 6.29205
1 3.92712 11.7569 12.2222
1 11.0666 4.93393 4.68361
1 4.53497 2.14525 11.5451
1 1.21945 6.3436 4.45977
1 6.96313 11.1101 11.8708
1 10.4332 9.74171 3.38294
1 1.76965 10.0771 10.5086
1 3.04222 1.05986 2.68208
1 10.7025 2.99517 9.42986
1 1.9283 9.44371 3.2265
1 10.4581 10.2784 9.32991
1 10.1789 2.63746 3.16416
1 2.43056 4.14316 10.6295
1 0.304165 1.93291 1.61654
1 12.0972 0.281747 8.02918
1 0.123095 11.382 1.76886
1 2.38073 11.8337 7.90598
1 11.6537 11.6741 11.9432
1 3.67307 11.261 4.81095
1 -0.267892 2.06152 11.745
1 11.6846 0.852798 4.96901
96
 Atoms. Timestep: 6000
2 5.64991 10.1573 6.05094
2 7.97174 5.09927 6.89919
2 11.6438 2.66214 4.52227
2 7.1461 12.0701 10.5265
2 9.3411 6.79282 7.63962
2 7.0214 0.442648 1.47376
2 0.406147 8.21037 6.95732
2 3.83815 0.978402 0.906155
2 7.84533 8.41734 6.80607
2 5.10005 10.6734 1.39215
2 1.73929 5.15281 6.23608
2 8.68363 1.77801 12.1968
2 2.36585 7.68099 5.66794
2 7.60074 10.2966 12.5425
2 10.2786 5.0403 6.1559
2 4.10727 9.70436 9.46366
2 11.178 7.24701 6.29738
2 6.19449 6.72724 6.30023
2 0.740792 6.50067 4.21236
2 6.7877 2.42348 10.2297
2 2.29882 5.0398 10.7754
2 6.38148 2.27413 1.1766
2 8.17429 7.08224 9.91972
2 1.12322 8.79364 9.26211
2 10.2327 9.51909 7.72042
2 2.30111 11.5932 2.2552
2 2.27323 6.51993 8.5211
2 8.58674 2.36648 3.18306
2 1.34586 7.47725 11.1387
2 7.92366 10.2653 2.86433
2 10.1473 4.45919 8.87726
2 4.94761 2.89571 3.59577
2 3.50862 3.60989 5.08629
2 9.53793 1.73587 9.76656
2 7.59775 9.17347 4.78586
2 3.04306 10.2264 12.0777
2 9.5135 5.2185 4.35269
2 3.59488 3.04506 9.68868
2 1.61226 9.25379 3.94151
2 8.30504 9.10438 9.75358
2 11.7406 10.7241 2.54977
2 3.70465 10.8026 7.4339
2 12.1408 2.75832 1.47898
2 0.66422 1.62685 6.384
2 11.6368 1.05358 2.77059
2 4.6788 0.629233 9.27821
2 11.7667 0.367969 12.1761
2 10.5412 0.547054 4.92801
2 1.4566 4.00882 3.75938
2 12.1629 11.4273 7.6488
2 0.785633 11.1797 4.30369
2 5.92819 2.61817 7.86734
2 2.6391 2.10268 3.35627
2 2.03166 10.4997 10.0809
2 9.85952 10.2649 4.17513
2 0.863429 2.34629 9.44917
2 0.992409 9.88395 12.4855
2 4.46599 1.0097 5.51657
2 11.0766 2.49627 11.2541
2 10.2032 7.49738 4.01412
2 2.47806 0.725244 8.38603
2 9.47813 2.81746 5.67023
2 1.87075 2.02548 11.728
2 3.69653 10.5418 4.50663
1 8.73997 8.09041 8.26377
1 3.52396 11.0326 1.15519
1 1.65815 6.72133 6.88352
1 8.25425 1.93748 1.54469
1 1.40462 6.26859 10.1238
1 6.96314 10.7528 1.64396
1 9.47873 5.18984 7.58535
1 4.6327 2.17661 1.52507
1 2.34617 4.50959 4.89413
1 8.1238 1.5642 10.7027
1 6.25534 8.69 5.57944
1 6.45351 5.56435 7.29328
1 10.8143 6.34245 5.04416
1 5.21511 2.38066 9.64441
1 1.81606 7.7473 4.15549
1 7.38131 10.2784 10.6043
1 8.75176 8.8251 3.64872
1 1.58458 9.19026 11.2005
1 3.97342 2.11169 4.56241
1 10.7195 3.11023 9.6909
1 2.07912 10.7709 3.69198
1 11.8903 9.678 8.11226
1 8.72714 3.75988 4.24666
1 2.12701 3.1848 10.4271
1 0.745262 2.74019 2.91634
1 1.10565 1.15047 8.11975
1 11.1313 11.6114 3.62062
1 3.33092 11.249 9.03623
1 11.636 10.6353 0.863352
1 4.32291 11.2011 5.91466
1 12.1363 2.00526 12.4737
1 10.8694 1.87366 5.7467
96
 Atoms. Timestep: 8000
2 5.55516 10.368 5.31802
2 6.90565 5.67824 7.02933
2 0.728639 0.779346 6.44815
2 8.7414 0.948023 11.1129
2 10.2206 5.49461 7.84831
2 6.90938 0.558229 0.868183
2 1.49223 6.5873 8.98138
2 4.39923 1.03005 1.75098
2 7.46965 8.69124 7.05888
2 5.56198 10.9638 1.99276
2 1.37448 4.99273 6.52283
2 8.17935 3.09357 12.4607
2 1.73065 5.80167 4.43646
2 7.70168 10.7677 12.1016
2 8.93398 6.65598 5.73103
2 3.54935 8.60647 10.6617
2 12.0404 7.81846 5.40405
2 5.25781 7.78654 6.62241
2 11.1512 6.36435 3.44434
2 7.05591 3.064 9.48514
2 3.74328 6.21145 11.3316
2 5.97024 2.8474 1.75956
2 4.07582 6.07247 8.62301
2 12.2818 10.0598 7.15713
2 10.13 9.12247 7.57856
2 2.71586 10.6892 2.56227
2 3.32656 7.8501 8.36871
2 8.54694 1.65324 2.55327
2 2.58176 11.181 11.0433
2 7.36872 9.50611 2.04261
2 0.605283 4.71775 9.81221
2 3.04441 2.38306 2.6601
2 2.4702 3.23571 5.00577
2 8.71608 1.88985 9.07212
2 7.10884 8.38239 4.42827
2 4.31605 10.3423 12.3605
2 9.46233 4.30837 3.45048
2 4.67188 3.84501 10.359
2 1.90546 8.54982 4.17735
2 8.97438 10.068 9.45095
2 10.4216 11.7631 2.57033
2 5.47979 0.270572 6.7023
2 11.0693 1.99437 3.35186
2 9.72577 1.23264 7.85019
2 11.9081 11.7028 3.94658
2 5.35106 1.49262 8.67929
2 12.0811 0.556945 0.457468
2 10.4059 11.6135 5.26754
2 0.319707 3.66372 4.4494
2 1.97461 10.8159 8.54837
2 12.1246 9.62514 3.2314
2 5.18882 3.94819 7.75699
2 10.249 9.61605 5.36804
2 4.24648 10.8558 9.42615
2 9.53291 9.99758 3.35323
2 2.43887 3.85955 11.4913
2 10.2671 11.1219 12.2206
2 4.27073 1.09386 4.63447
2 1.06159 1.30876 11.0085
2 8.88636 7.09032 3.21679
2 2.98696 0.549752 7.4896
2 9.82621 2.15383 4.97844
2 4.43783 4.00995 0.941247
2 2.35856 11.0414 5.34293
1 8.75418 9.02687 8.21361
1 4.21341 11.2282 1.41381
1 0.470009 5.34061 8.18695
1 7.18782 2.05364 1.2559
1 3.13488 6.95686 9.83999
1 7.06197 10.6725 1.14831
1 8.68415 6.07403 7.42342
1 4.39045 2.81124 1.88981
1 1.61426 4.38355 5.05777
1 8.09915 2.36583 10.6888
1 6.62042 8.90357 5.90047
1 5.2767 5.93021 7.40852
1 9.40069 5.79575 4.0369
1 5.18246 3.05033 9.00065
1 0.895804 7.13514 4.17959
1 9.06451 11.0484 10.9376
1 8.2682 8.7503 3.22718
1 3.89607 10.1126 10.8404
1 2.73573 1.99142 4.09515
1 0.920457 3.19798 11.1776
1 2.1988 10.0988 4.01155
1 11.2047 8.93158 6.45389
1 9.6273 2.53104 3.26298
1 3.95079 4.44607 11.7894
1 0.550771 1.52649 4.61387
1 1.5354 11.2469 6.84321
1 10.745 10.6817 3.88947
1 4.47325 11.8975 8.12305
1 10.5988 0.725825 0.960621
1 5.62049 11.9097 5.08295
1 1.38052 11.885 11.8508
1 9.7189 0.919061 6.0363
96
 Atoms. Timestep: 10000
2 6.51085 10.6996 4.73457
2 7.38266 6.03534 9.19385
2 3.26669 9.72215 5.08851
2 8.73079 1.75517 11.0765
2 10.7235 5.62132 9.28135
2 7.07382 0.932533 1.4641
2 1.9713 6.03122 8.85063
2 3.07415 0.580521 0.975795
2 8.17414 9.12475 7.50792
2 4.97208 10.8331 1.41167
2 1.20342 4.4712 6.92847
2 0.738714 0.593139 12.3246
2 0.643118 5.70001 5.2671
2 7.09665 11.6026 12.3224
2 8.84091 5.27646 7.15715
2 3.51353 8.34636 10.8915
2 12.1535 11.3725 8.24329
2 5.71352 7.44909 7.19508
2 10.5145 6.4241 5.03585
2 6.48554 2.54267 9.52988
2 3.46577 5.17911 11.2706
2 5.40979 2.48951 1.18589
2 4.54614 6.79831 9.17381
2 2.89306 9.52551 3.66812
2 10.1859 10.5864 8.11961
2 2.26096 9.65072 1.1437
2 2.67502 9.39312 8.25916
2 8.15488 3.37709 2.28508
2 1.72475 9.67625 9.89461
2 7.59658 10.4947 2.2642
2 1.47753 4.1363 9.334
2 3.61913 1.99094 3.20224
2 2.77599 2.98508 5.30607
2 8.99435 3.90087 9.39736
2 6.60759 8.61031 5.04368
2 3.35711 10.3368 11.5078
2 8.38814 4.16774 4.71107
2 4.74226 3.89057 9.94983
2 0.516688 7.80505 3.25777
2 8.39791 11.2363 10.1278
2 11.4033 10.8725 1.78817
2 4.5813 12.0834 6.40901
2 10.363 2.66061 3.08898
2 9.06195 2.26774 8.09531
2 11.6144 11.9395 3.66497
2 4.89724 1.88753 7.84036
2 11.6924 10.9357 11.1177
2 10.1971 1.18443 6.5663
2 0.742856 2.67605 4.62151
2 7.51891 11.7768 6.73219
2 0.31612 9.8079 3.20132
2 5.72376 4.61417 7.95879
2 10.705 10.61 5.63732
2 4.45075 11.0754 9.01845
2 9.08415 9.60003 4.07959
2 2.31037 2.97685 10.7532
2 10.0754 11.5016 12.1411
2 5.37344 1.77227 5.77415
2 1.61896 0.811603 9.86813
2 7.06474 8.29789 2.89501
2 2.99833 11.438 7.29995
2 8.71195 1.81837 4.88315
2 3.42483 3.27989 0.376119
2 0.898972 9.76787 6.50537
1 8.53073 10.5562 8.26532
1 3.53296 11.0036 0.563974
1 0.434942 5.2844 8.46703
1 7.10046 2.60733 1.08795
1 3.19836 6.51241 10.2407
1 6.46023 11.3637 1.16018
1 9.00357 5.51825 8.7063
1 3.59665 2.13377 1.75726
1 1.65026 4.22709 5.13358
1 8.14466 2.62649 9.8757
1 6.70591 8.41045 6.69311
1 5.95351 6.19493 8.52412
1 9.64109 5.18599 5.49835
1 5.3395 3.17741 8.66256
1 11.8838 7.05627 4.77633
1 8.56941 12.0425 11.3421
1 7.44649 9.68871 3.76503
1 3.57341 9.76938 9.99114
1 4.01176 2.12528 4.84307
1 2.21787 2.42408 8.92623
1 1.54784 9.00765 2.74788
1 11.4563 10.5978 7.0815
1 8.83465 2.78409 3.71458
1 3.93802 3.65853 11.4126
1 11.8121 2.01619 3.44962
1 2.72524 10.0103 6.83065
1 10.694 10.6172 3.67485
1 3.80994 0.497343 8.30108
1 11.5201 11.5442 12.8274
1 6.15751 11.9397 5.93626
1 0.681468 11.5281 10.064
1 8.70925 1.19799 6.78201
96
 Atoms. Timestep: 12000
2 6.68486 10.6155 4.83341
2 7.00281 5.47457 8.33687
2 1.69493 11.2171 4.90637
2 9.09729 12.1379 10.029
2 0.932429 7.55908 7.51348
2 7.46679 1.08093 12.8159
2 1.74799 6.62365 10.2103
2 4.68349 11.4011 2.91707
2 7.18427 8.89276 6.58277
2 5.7948 10.741 0.861111
2 0.95026 5.23563 8.12953
2 8.30827 2.41004 10.7998
2 1.06607 5.67159 5.68479
2 7.97339 10.6975 11.6958
2 9.39237 6.01405 6.1832
2 3.63461 7.33714 10.8783
2 11.5692 11.2192 8.23816
2 5.60574 8.13618 3.93411
2 10.7607 7.3456 5.31384
2 6.92809 1.44226 9.48676
2 3.12821 4.03492 11.8734
2 6.40139 2.57441 1.72002
2 4.42338 5.30161 10.102
2 2.79255 7.05728 2.05014
2 9.1631 9.82027 7.49298
2 4.17258 8.7002 2.72935
2 1.87043 9.24814 4.53657
2 7.80272 4.34396 1.30251
2 1.47677 9.8139 10.8269
2 8.08847 10.4141 2.69669
2 10.8357 4.15742 9.98821
2 3.65721 2.29932 3.96277
2 2.4992 3.52249 6.10077
2 9.48589 4.65042 9.02341
2 8.19694 8.58105 4.64
2 3.52686 9.72116 11.8916
2 9.42131 5.82748 3.43791
2 4.34573 1.91445 10.353
2 1.64691 7.14739 4.39685
2 8.3868 9.5079 9.48602
2 11.6218 11.1193 1.52775
2 5.92451 10.1948 8.23645
2 10.1531 3.48737 3.00671
2 8.70566 3.39829 7.1971
2 11.8662 1.38345 2.95136
2 4.6728 11.7748 8.47562
2 10.8685 1.89896 12.3278
2 10.0884 2.63762 4.97648
2 11.7058 3.77254 5.4832
2 7.56368 1.49257 5.69162
2 1.9666 9.73679 2.60192
2 5.11821 3.36379 8.26139
2 9.56545 1.44415 8.00548
2 2.83977 9.82777 8.89389
2 10.7424 10.2575 4.01378
2 2.04066 2.41968 11.6334
2 10.5629 10.9861 11.3472
2 4.74329 0.867648 5.28898
2 11.8284 1.29153 10.5243
2 9.22948 11.102 5.55935
2 3.00017 10.1479 6.83143
2 8.54644 3.95028 4.31511
2 4.48121 1.83001 1.30142
2 11.4343 10.2092 6.44915
1 7.50177 9.67899 7.89694
1 4.54927 9.89769 1.56081
1 0.778769 6.67071 8.96327
1 7.46319 2.82453 12.426
1 3.02848 5.71516 10.8803
1 7.18811 10.9442 1.2991
1 8.66646 5.23036 7.69188
1 5.07538 1.82711 2.9685
1 1.53815 4.5598 6.49208
1 8.4893 2.10917 9.01992
1 6.56712 9.0976 5.20471
1 5.55587 4.71994 9.0919
1 9.30708 6.89718 4.72824
1 5.49522 1.60734 8.98223
1 0.864482 7.18613 5.93638
1 9.12943 10.3299 10.6138
1 9.02422 10.1825 4.11451
1 2.84337 8.79078 10.4164
1 3.40625 2.15399 5.42564
1 11.6939 2.74749 11.2143
1 2.80186 8.29274 3.52933
1 10.012 11.5995 7.09857
1 8.82178 4.37821 2.72907
1 3.62996 2.33462 11.8483
1 11.5565 2.88733 3.88064
1 1.71493 9.96224 5.86289
1 0.939763 11.1452 3.09834
1 4.20609 10.1173 8.08256
1 10.1081 0.399039 1.01938
1 6.28901 0.832641 4.88989
1 11.7993 10.9971 10.0776
1 8.62585 2.88778 5.75037
96
 Atoms. Timestep: 14000
2 6.67358 0.818101 6.78356
2 8.6783 5.89556 8.74069
2 0.711119 10.0394 4.78513
2 6.59347 0.772767 10.1534
2 1.32334 5.86815 6.65575
2 8.67278 11.3404 0.653274
2 2.84047 6.73018 8.72645
2 3.88041 11.9785 1.59573
2 6.07549 9.4623 6.14496
2 6.23982 10.2736 1.71494
2 0.66218 6.60726 9.24037
2 7.00127 3.28588 11.1067
2 1.37423 3.81704 5.32448
2 7.8139 10.0543 11.5096
2 10.4165 6.44196 7.69769
2 2.98057 8.20171 10.4096
2 10.9574 10.9927 8.62033
2 7.47318 7.60229 4.54664
2 11.258 6.16556 4.9046
2 4.65175 2.84089 9.10748
2 3.5962 5.59119 10.9905
2 5.93511 3.04889 1.54219
2 5.275 6.73359 9.83691
2 4.41254 8.25356 4.67013
2 8.97069 9.9641 7.00013
2 3.78868 9.47388 3.09843
2 2.1611 8.76032 5.55315
2 8.75885 3.71722 0.950656
2 1.36704 10.0372 10.5409
2 7.9475 8.19806 1.75832
2 11.1202 2.62261 10.0929
2 4.34619 2.84378 3.25205
2 3.10575 2.49179 5.49942
2 10.9062 3.64885 8.99857
2 9.41755 7.1392 4.95757
2 4.03816 9.58333 12.4817
2 7.67262 3.89159 2.88001
2 2.7334 2.33466 10.498
2 2.06611 6.55473 4.23354
2 7.72514 10.7008 8.70154
2 10.9833 10.6662 1.93842
2 5.63214 11.1702 8.00788
2 8.43478 5.71418 2.83138
2 10.5187 4.52176 6.71709
2 10.4841 0.915268 4.26513
2 3.62453 1.04736 8.59837
2 11.3928 1.43038 0.609356
2 11.6847 2.29493 5.11542
2 2.03512 2.3604 2.98192
2 8.97775 3.20285 5.89942
2 11.6231 8.78902 2.31254
2 1.83746 4.06038 8.67426
2 6.42913 2.77834 7.87427
2 3.90881 9.85701 9.72323
2 9.61017 8.87686 3.74008
2 1.34558 3.34849 11.6371
2 10.2991 11.5502 10.9524
2 6.19944 3.1094 5.47707
2 0.831844 0.829933 10.6984
2 10.9421 8.47235 6.81446
2 2.77113 10.5081 7.48617
2 10.1908 4.05396 3.63569
2 3.84642 3.39308 0.959268
2 11.836 11.0754 6.59866
1 7.19576 10.7563 7.10461
1 4.43122 10.2963 1.99915
1 1.70536 5.6824 8.17044
1 7.31636 3.05341 0.60735
1 3.69061 6.95399 9.9875
1 7.7297 10.1223 1.13374
1 9.96641 4.87326 8.14761
1 4.45237 2.10037 1.69151
1 1.66903 2.35598 4.65521
1 6.08163 2.32031 9.58817
1 5.91922 7.84647 5.25806
1 7.15142 6.50795 9.60758
1 10.266 7.381 6.25042
1 2.9824 2.55086 8.91982
1 1.13379 5.53193 5.01616
1 7.09773 10.5653 10.0811
1 8.57766 7.37074 3.22499
1 2.80873 9.55405 11.3803
1 4.55376 3.54487 4.68069
1 11.9473 2.20989 11.3417
1 2.86772 8.16102 3.99148
1 10.6128 9.99264 7.36107
1 9.21784 4.3568 2.27545
1 3.24313 3.92107 11.5059
1 11.1967 0.874162 5.618
1 1.89011 10.4171 6.00401
1 11.1713 9.72815 3.4606
1 4.06486 10.9334 8.54538
1 10.2906 11.3452 0.634245
1 7.45692 2.60768 6.56766
1 11.5196 11.2617 9.98037
1 10.3971 3.54401 5.44575
96
 Atoms. Timestep: 16000
2 6.89924 11.3019 7.49023
2 7.13596 6.25536 7.87422
2 10.6145 11.4431 4.098
2 7.26182 11.4839 10.5011
2 2.05061 5.14035 6.36466
2 8.44491 10.6091 0.748561
2 3.17302 5.45024 9.26009
2 4.95471 11.8633 0.919942
2 6.8678 9.068 5.94032
2 6.04379 9.30362 1.3575
2 10.571 4.34845 10.1138
2 8.01282 2.35681 11.3266
2 1.64954 4.6667 3.72652
2 7.81633 9.1007 11.5834
2 9.95924 6.07689 7.34062
2 2.78489 8.03478 11.0797
2 11.4966 10.1414 8.88986
2 4.45805 9.50709 6.86789
2 11.621 6.39654 5.29307
2 5.4794 1.96033 9.67368
2 3.31279 5.34822 11.861
2 6.57482 1.9063 0.755748
2 4.91706 7.51604 10.1426
2 4.37021 9.17118 4.58956
2 9.16549 10.3064 7.04568
2 3.74077 10.4975 2.96463
2 2.49645 10.1683 5.64687
2 7.71066 3.84628 1.82288
2 1.35859 9.78948 11.4818
2 9.00918 8.61883 1.45269
2 11.3672 3.51545 11.0477
2 4.98274 1.83955 3.0134
2 4.7292 4.0434 4.10822
2 9.45097 4.76642 9.59279
2 9.62148 8.06528 4.81162
2 3.65496 9.72605 12.79
2 6.75671 5.5179 3.51338
2 3.85194 3.74767 10.7869
2 2.42455 7.51219 4.19791
2 7.17395 8.57923 8.27969
2 10.8803 11.5633 1.74276
2 5.03414 10.8145 7.75671
2 8.36299 6.92899 2.64734
2 8.35314 4.24341 6.50177
2 8.8509 0.464016 6.05528
2 3.562 1.29457 9.4457
2 8.75373 1.55653 0.734855
2 10.0116 2.27356 4.71092
2 3.04579 3.2684 1.53843
2 7.24792 3.1946 4.75546
2 1.17003 9.90532 3.32365
2 4.05706 3.83936 8.36112
2 7.35802 1.67284 8.39786
2 3.80682 10.3851 10.2132
2 10.7207 9.16654 3.08591
2 1.88788 3.32423 11.157
2 10.0239 10.4941 10.9666
2 6.35349 1.44059 5.38083
2 0.676911 12.3441 10.1672
2 10.874 8.41798 6.59989
2 2.89596 11.3403 7.42863
2 8.9042 4.31083 3.72286
2 4.02443 2.29445 12.4899
2 12.1018 10.0928 6.03899
1 7.59049 9.77723 7.24444
1 4.64722 10.3541 1.45629
1 3.40542 4.99542 7.61448
1 7.69205 2.98991 12.7947
1 3.55258 6.53913 10.5777
1 7.57588 9.01281 0.747262
1 8.81866 5.16365 7.94378
1 5.09356 1.81592 1.35272
1 3.23868 3.77702 3.07847
1 7.05562 1.62479 9.78063
1 5.29136 8.5766 5.68208
1 6.14768 7.2756 8.58736
1 10.138 7.02081 5.9955
1 4.18433 2.73901 9.74383
1 1.50179 5.88544 5.01062
1 8.33395 10.2587 10.1677
1 9.29494 8.12593 3.18378
1 2.98258 9.74989 11.3587
1 5.65807 2.73971 4.78143
1 12.5898 2.06047 11.0356
1 2.82822 9.13013 3.81209
1 10.6256 9.99703 7.29176
1 8.18159 5.1006 2.64062
1 3.12449 3.65379 12.2524
1 10.1227 0.87833 5.17686
1 1.65396 10.8994 6.65997
1 11.5213 10.6441 3.05495
1 3.76098 11.6673 8.85274
1 9.51022 11.7951 0.588645
1 7.39144 0.875466 7.02889
1 11.8046 10.4631 10.7925
1 8.83096 3.46649 4.99692
96
 Atoms. Timestep: 18000
2 7.70384 10.3021 6.8588
2 7.90063 6.29502 9.63015
2 10.0569 11.5185 4.24969
2 7.73403 11.8734 10.0216
2 3.59962 6.07873 6.93448
2 8.70436 9.44585 12.3731
2 3.96689 5.69006 9.27693
2 5.58767 11.6169 1.24373
2 7.01005 8.80638 5.17813
2 6.02384 8.93425 1.78536
2 8.11807 3.34549 8.64876
2 8.61256 2.40738 10.5742
2 2.53154 5.58476 4.10984
2 7.5128 8.90201 10.4522
2 9.57091 6.02409 7.78066
2 3.02482 7.53055 10.6257
2 11.2563 10.8379 8.78949
2 5.82256 11.5051 3.43781
2 1.19074 6.75669 6.783
2 5.67337 1.88371 9.32779
2 3.54153 4.71296 11.565
2 7.08207 2.04015 1.9935
2 5.53168 7.00751 10.7502
2 4.68888 9.33125 4.27128
2 8.4923 9.879 9.03781
2 3.45449 9.64594 2.2394
2 2.28216 9.33542 5.67678
2 8.43385 4.43676 1.53682
2 1.98359 10.521 9.82063
2 8.51299 8.63049 2.9177
2 11.7381 0.984547 2.0586
2 3.99182 2.52609 2.90228
2 3.72003 3.24628 4.85978
2 8.2673 5.29689 6.36783
2 10.4782 7.23616 5.61542
2 4.09539 10.1432 11.3756
2 7.70495 6.85225 1.35079
2 3.35258 3.15241 10.2039
2 3.02041 7.67207 4.52434
2 6.66316 8.40653 8.08173
2 10.8709 11.8738 11.8424
2 5.25351 11.1935 7.24065
2 9.35722 6.76461 3.58252
2 6.38126 5.41785 7.75813
2 7.57036 10.7155 4.02069
2 2.92712 1.23459 8.54883
2 9.2122 1.0559 1.1563
2 8.47902 2.7279 4.07261
2 2.98532 4.19749 1.93557
2 6.34949 3.48377 5.91256
2 1.83118 10.2775 3.15061
2 4.44463 3.81454 7.94405
2 7.11837 1.09043 7.88525
2 4.07508 9.58615 8.89347
2 11.1156 9.62498 3.96933
2 1.70031 2.92006 0.774912
2 9.81195 10.2448 10.6659
2 6.01513 1.46169 5.33187
2 1.3937 1.60837 10.8262
2 8.88276 8.34502 6.93512
2 2.15527 10.8577 7.08144
2 7.61422 5.61689 4.17843
2 4.68987 2.77571 0.954702
2 11.2597 8.59122 7.78924
1 7.39781 8.5505 6.66468
1 4.75028 10.0027 1.18448
1 4.67642 5.3207 7.80476
1 8.37524 2.56898 12.6655
1 3.8362 6.18702 10.8185
1 7.61694 8.66079 1.5326
1 8.05689 5.16372 8.24281
1 5.30727 1.86548 2.40663
1 3.1879 4.02355 3.48132
1 7.6057 2.02991 9.49402
1 6.26283 9.94793 4.32437
1 6.81613 7.58826 9.84736
1 10.5073 7.04545 7.27972
1 4.08816 2.43272 9.04311
1 2.52813 6.35146 5.617
1 7.313 10.4489 9.88716
1 9.88457 8.38576 4.28649
1 3.10243 9.45237 10.2929
1 5.03999 2.71025 5.64316
1 11.7683 1.91899 0.581583
1 3.09234 9.2365 4.0018
1 10.1915 9.66042 9.11004
1 8.24555 5.62541 2.50043
1 3.30879 3.27851 12.0994
1 8.49745 0.970738 3.98128
1 1.07905 9.85782 6.58059
1 11.4565 11.1634 3.69494
1 3.67805 10.9099 7.83079
1 9.69208 10.6738 12.1231
1 6.86903 11.7295 6.31993
1 0.991446 0.915207 9.22189
1 7.76424 4.03738 5.11955
96
 Atoms. Timestep: 20000
2 8.42646 11.5378 7.10929
2 7.29303 7.34295 8.30173
2 10.8737 11.8147 4.362
2 8.27095 1.21714 9.44485
2 3.57745 4.73651 5.76942
2 7.67953 10.0818 0.857997
2 4.23067 5.9884 8.48736
2 3.92371 11.3391 1.92504
2 6.79181 9.44699 6.36138
2 5.66056 8.89887 1.85954
2 7.93256 3.91424 8.64401
2 8.04682 2.55794 11.4791
2 2.46302 4.24719 3.60386
2 8.1549 9.88011 8.92931
2 8.8462 5.93157 7.34924
2 3.59076 7.29532 10.2848
2 0.623291 11.6026 10.0286
2 5.12034 11.7998 3.50326
2 10.1677 7.56307 7.77581
2 5.70255 2.49767 8.91709
2 4.68515 5.48039 11.4407
2 6.29932 1.74119 2.06616
2 5.91145 7.79871 10.2424
2 4.68607 9.93021 4.42686
2 10.0752 11.892 9.3812
2 3.3041 9.34652 2.92408
2 4.16508 8.88278 5.96478
2 8.36627 3.82586 1.68343
2 2.88801 10.6926 11.1012
2 8.93038 8.85318 2.61415
2 11.6352 11.4945 2.50953
2 4.30898 2.11649 0.852565
2 3.9846 2.88442 2.9955
2 7.25867 4.93819 5.75352
2 10.4146 7.05566 4.85162
2 3.92107 8.52234 12.4897
2 7.98168 6.85009 1.46796
2 4.05587 3.36808 10.4909
2 3.26418 7.18539 3.97316
2 5.7916 9.01295 8.51321
2 9.23767 0.589456 2.21278
2 5.12746 11.2647 7.39528
2 9.6031 6.44782 2.8813
2 5.71117 5.33864 6.97523
2 8.91154 11.0214 4.21029
2 3.11429 1.18869 9.38478
2 7.71506 0.863237 0.879311
2 8.42111 2.1314 4.21139
2 3.5854 4.25071 1.05835
2 6.01148 3.85888 4.6276
2 1.91791 10.2309 4.57799
2 3.6928 3.88742 8.22332
2 7.07141 1.77573 5.85054
2 3.54498 9.57841 9.00098
2 11.0309 9.29843 3.6759
2 1.10783 2.40673 2.16605
2 9.82919 11.4227 11.5187
2 4.80125 1.96651 6.02376
2 1.9967 0.581873 12.5693
2 8.89659 8.69362 5.75575
2 1.56254 7.72536 8.38178
2 8.03975 4.11898 3.73703
2 6.09204 3.73961 12.5844
2 11.2203 9.3543 9.80781
1 8.22589 10.2939 5.9447
1 4.26576 9.57377 1.5946
1 4.28415 4.97912 7.24695
1 7.27347 2.48123 0.929656
1 4.93727 6.39326 10.2328
1 7.47057 8.63738 1.61752
1 7.17282 5.69297 7.74798
1 4.68691 1.24699 2.17122
1 2.37019 3.54733 2.02348
1 7.35724 2.63882 9.45186
1 6.17665 10.5726 3.9433
1 7.08049 8.70769 9.30198
1 9.59557 6.99166 6.44174
1 4.03124 2.49762 9.08756
1 2.81548 5.72595 4.6459
1 8.55462 11.2669 8.74596
1 10.0939 7.88571 3.52388
1 3.30826 8.86243 10.6836
1 4.69825 2.95794 4.5927
1 0.727973 0.921408 1.37718
1 3.3448 9.10305 4.48135
1 10.7924 10.842 10.3087
1 8.22838 5.09742 2.43906
1 4.61034 3.6558 12.0952
1 9.52238 0.930571 3.82163
1 11.5977 8.03548 8.60024
1 0.66853 10.7088 4.00472
1 4.63683 9.74783 7.57151
1 8.8508 11.3791 0.645779
1 5.91207 0.949141 6.51252
1 2.11936 0.551601 10.5628
1 7.4895 3.49854 5.13837
96
 Atoms. Timestep: 22000
2 6.85468 11.0265 7.24797
2 8.01939 6.62609 9.68033
2 10.4928 10.6661 4.17377
2 6.56354 1.17843 9.21528
2 3.32918 6.12389 6.86252
2 7.64682 10.2847 2.24742
2 3.79367 5.62836 9.43978
2 5.34278 11.8449 12.1622
2 6.98199 8.0549 4.86766
2 5.96304 9.00471 1.19921
2 7.01287 4.37179 8.71645
2 7.88301 2.96874 10.2801
2 2.32483 5.23404 4.89496
2 7.59856 9.68732 9.49633
2 9.58041 6.21236 7.90462
2 2.65783 8.42286 9.75455
2 11.192 1.00534 10.6904
2 8.33743 9.82309 4.00215
2 11.0703 8.61445 7.71215
2 4.69349 3.69927 10.1555
2 4.23177 6.47916 11.763
2 7.34231 2.03939 12.3764
2 5.20245 7.2037 9.18725
2 5.11724 9.55016 3.40396
2 9.17653 11.7825 8.95859
2 4.16373 9.90482 1.71464
2 2.72808 8.40827 6.14881
2 8.99071 4.12712 12.3318
2 1.82692 11.3922 10.2553
2 7.2919 7.93626 2.58314
2 1.49264 11.4538 3.24082
2 4.92461 3.25067 1.0954
2 4.45955 3.54538 4.1823
2 6.64156 2.85385 5.36569
2 11.8939 6.87295 5.24412
2 4.23632 10.1481 10.3801
2 7.79259 6.10265 1.39883
2 3.41202 4.67408 11.5273
2 3.39895 7.46738 4.3734
2 7.21362 7.63391 8.07589
2 10.4772 10.0364 1.90592
2 4.78353 9.99793 5.57814
2 9.94184 5.72551 3.17787
2 4.90835 4.08061 6.89068
2 8.2224 9.73118 6.05808
2 2.58889 2.54189 11.6163
2 9.50081 1.49128 1.22332
2 8.63124 1.49342 4.83192
2 3.39227 4.8955 2.36914
2 6.28656 1.96745 3.01498
2 1.89703 9.22883 2.79066
2 3.2456 3.80328 8.76592
2 6.62045 0.890898 4.74947
2 3.9134 9.25194 8.42172
2 11.3115 8.35126 3.89398
2 2.63856 2.91133 3.16577
2 9.37816 11.0982 11.6287
2 4.96455 1.58693 5.96454
2 1.6365 0.79676 1.30098
2 9.20272 7.43491 5.94869
2 1.57455 10.0331 8.46957
2 8.33507 3.88436 3.21037
2 5.5855 5.86705 1.3609
2 10.05 10.877 6.48744
1 7.76794 8.24941 6.38545
1 4.79169 10.0881 11.9612
1 3.97712 5.05407 7.8062
1 8.87219 2.64426 11.8221
1 3.83071 6.92019 10.0154
1 6.78216 7.24079 1.31571
1 8.61461 5.28913 8.83983
1 5.90617 1.92781 1.31589
1 3.13978 4.27872 3.89111
1 6.30239 3.16237 9.42465
1 6.75781 9.24906 3.55912
1 6.90325 7.83077 9.55853
1 10.6693 7.31857 6.82622
1 3.07281 3.62396 10.4422
1 2.38196 6.90657 5.59596
1 7.54586 11.2243 8.7087
1 11.0365 6.73906 3.72233
1 2.70222 10.2242 9.49996
1 5.11105 3.05463 5.59241
1 1.95131 1.51799 2.70316
1 3.41262 9.01909 3.27432
1 9.70885 0.931561 10.6543
1 8.81197 4.97212 2.10246
1 4.40234 4.7944 1.09574
1 9.01224 10.8612 5.13174
1 10.8676 10.3591 7.75961
1 11.695 9.90739 3.28096
1 4.12802 9.11921 6.88663
1 9.25963 11.1169 1.45155
1 5.67518 11.3036 5.94179
1 1.53274 1.27778 11.4973
1 7.59978 2.36529 4.0711
96
 Atoms. Timestep: 24000
2 6.79939 10.8282 6.69534
2 7.71245 7.37448 8.59091
2 10.2164 9.97969 4.46912