96
 Atoms. Timestep: 0
2 0 7.95642 4.74695
2 4.63304 0 11.358
2 0 4.63304 4.74695
2 7.95642 0 11.358
2 0 4.63304 8.47514
2 7.95642 0 1.8641
2 0 7.95642 8.47514
2 4.63304 0 1.8641
2 10.7421 8.43088 6.61105
2 4.15858 10.7421 0
2 1.84736 4.15858 6.61105
2 8.43088 1.84736 0
2 1.84736 8.43088 6.61105
2 8.43088 10.7421 0
2 10.7421 4.15858 6.61105
2 4.15858 1.84736 0
2 10.5201 6.29473 5.04003
2 6.29473 10.5201 11.6511
2 2.06934 6.29473 5.04003
2 6.29473 2.06934 11.6511
2 2.06934 6.29473 8.18207
2 6.29473 2.06934 1.57102
2 10.5201 6.29473 8.18207
2 6.29473 10.5201 1.57102
2 10.1594 8.65935 9.20274
2 3.93011 10.1594 2.59169
2 2.43004 3.93011 9.20274
2 8.65935 2.43004 2.59169
2 2.43004 8.65935 9.20274
2 8.65935 10.1594 2.59169
2 10.1594 3.93011 9.20274
2 3.93011 2.43004 2.59169
2 2.43004 3.93011 4.01936
2 8.65935 2.43004 10.6304
2 10.1594 8.65935 4.01936
2 3.93011 10.1594 10.6304
2 10.1594 3.93011 4.01936
2 3.93011 2.43004 10.6304
2 2.43004 8.65935 4.01936
2 8.65935 10.1594 10.6304
2 0 10.703 0
2 1.88643 0 6.61105
2 0 1.88643 0
2 10.703 0 6.61105
2 0 0 1.872
2 0 0 8.48305
2 0 0 11.3501
2 0 0 4.73905
2 11.2706 2.31295 2.18973
2 10.2765 11.2706 8.80078
2 1.31887 10.2765 2.18973
2 2.31295 1.31887 8.80078
2 1.31887 2.31295 2.18973
2 2.31295 11.2706 8.80078
2 11.2706 10.2765 2.18973
2 10.2765 1.31887 8.80078
2 1.31887 10.2765 11.0324
2 2.31295 1.31887 4.42131
2 11.2706 2.31295 11.0324
2 10.2765 11.2706 4.42131
2 11.2706 10.2765 11.0324
2 10.2765 1.31887 4.42131
2 1.31887 2.31295 11.0324
2 2.31295 11.2706 4.42131
1 11.0086 7.83654 8.10972
1 4.75292 11.0086 1.49867
1 1.5809 4.75292 8.10972
1 7.83654 1.5809 1.49867
1 1.5809 7.83654 8.10972
1 7.83654 11.0086 1.49867
1 11.0086 4.75292 8.10972
1 4.75292 1.5809 1.49867
1 1.5809 4.75292 5.11238
1 7.83654 1.5809 11.7234
1 11.0086 7.83654 5.11238
1 4.75292 11.0086 11.7234
1 11.0086 4.75292 5.11238
1 4.75292 1.5809 11.7234
1 1.5809 7.83654 5.11238
1 7.83654 11.0086 11.7234
1 10.1088 10.1088 3.30552
1 2.48067 10.1088 9.91657
1 2.48067 2.48067 3.30552
1 10.1088 2.48067 9.91657
1 2.48067 10.1088 3.30552
1 10.1088 10.1088 9.91657
1 10.1088 2.48067 3.30552
1 2.48067 2.48067 9.91657
1 0 1.60471 1.57853
1 10.9848 0 8.18958
1 0 10.9848 1.57853
1 1.60471 0 8.18958
1 0 10.9848 11.6436
1 1.60471 0 5.03252
1 0 1.60471 11.6436
1 10.9848 0 5.03252
96
 Atoms. Timestep: 2000
2 0.182265 7.00812 4.08426
2 4.6298 0.00758877 12.4717
2 12.9251 4.25309 5.35743
2 8.00921 -0.346674 12.1204
2 12.3712 5.31158 7.88467
2 7.97099 12.3289 1.44519
2 12.3525 9.35592 9.4977
2 4.60446 12.0689 1.87185
2 11.0963 8.11598 5.4938
2 5.74395 10.2557 0.457016
2 1.96276 4.66389 7.30111
2 7.50834 1.79914 0.226043
2 12.5175 8.11269 7.87462
2 8.38599 10.535 0.313419
2 10.6694 5.01792 6.01919
2 4.45515 1.78451 0.37553
2 11.3869 5.83995 4.11383
2 6.29223 10.8917 11.7952
2 2.11327 5.59129 5.16741
2 5.94619 1.6293 11.4293
2 1.57397 6.70754 8.81795
2 5.80914 0.815305 2.03163
2 10.2962 6.34996 7.77651
2 6.28415 10.6701 3.82608
2 10.3187 9.28229 8.25013
2 3.98435 10.0116 2.83106
2 0.945966 4.12769 9.66576
2 8.6232 1.74637 2.60712
2 1.96642 9.65609 8.60694
2 9.5748 10.3821 2.58036
2 10.1225 3.25216 8.49051
2 2.99222 1.15134 2.17102
2 1.49682 3.3881 4.27589
2 8.40042 1.76219 11.0199
2 11.2029 8.77086 2.95548
2 4.25412 11.254 10.3047
2 10.5372 3.16667 4.08557
2 2.99659 2.52191 11.53
2 2.18899 8.13439 2.99509
2 9.42902 10.8877 10.8839
2 0.54198 11.3102 13.0125
2 2.05996 -0.564507 6.73379
2 12.4536 2.60267 13.1924
2 10.6371 12.5744 7.08045
2 0.631247 0.267533 0.479112
2 -0.0515011 0.491416 8.74312
2 0.326678 0.701189 11.8865
2 -0.310832 12.4955 5.64057
2 11.606 1.34066 2.3598
2 10.6402 11.2194 8.78292
2 1.32503 10.2046 1.82266
2 2.12969 1.95395 8.72416
2 1.16273 2.67207 1.62911
2 2.919 12.2388 8.8619
2 12.1157 11.3995 2.00383
2 10.2131 0.534255 9.08137
2 1.64322 11.7277 10.763
2 1.70032 1.24379 4.08905
2 10.8808 2.48212 10.9001
2 10.2902 11.3761 4.57817
2 11.3409 11.4303 10.8229
2 10.8343 1.04807 4.6527
2 0.675341 2.29065 10.5005
2 1.75303 10.9694 4.65076
1 11.0752 8.03664 7.32931
1 5.35696 10.3206 2.15225
1 0.905885 5.20832 8.58005
1 7.44593 1.11033 1.69296
1 0.801073 8.57692 8.69606
1 8.1807 10.7748 1.98454
1 10.7991 4.69971 7.64724
1 4.27463 0.701245 1.35446
1 1.56896 4.18813 5.79365
1 7.52833 1.18535 12.2253
1 11.4012 7.38522 3.8306
1 4.90149 11.4197 11.8926
1 11.4115 4.18006 4.74751
1 4.20006 1.64017 12.2415
1 1.73718 6.4876 3.91784
1 8.19182 11.0351 12.057
1 11.1528 10.3395 2.99756
1 2.71076 10.8621 9.56378
1 2.0943 2.43731 2.81732
1 9.77906 1.95342 9.9295
1 2.19977 9.78318 3.00365
1 10.6065 10.024 9.84799
1 10.1602 2.03299 3.11575
1 2.24726 2.95968 10.1315
1 12.7825 1.89986 1.18655
1 11.3624 -0.173614 8.46127
1 0.728242 11.3783 1.13985
1 1.41241 0.455661 8.10591
1 0.107541 11.8678 11.5849
1 1.48932 12.5368 5.08583
1 12.4609 2.2796 11.6285
1 11.0546 12.5274 5.4204
96
 Atoms. Timestep: 4000
2 0.315008 7.95435 4.91154
2 5.75694 12.448 10.9735
2 12.8381 4.41063 6.26068
2 8.56535 -0.314665 11.302
2 0.665572 4.88171 8.50087
2 7.98212 12.2162 1.0279
2 10.754 9.00563 9.41905
2 4.82053 12.6332 0.881676
2 11.2983 7.88296 6.8401
2 4.26372 10.2465 12.6814
2 2.16407 4.33204 6.99355
2 8.39645 1.69876 12.9514
2 0.337513 8.84093 8.82117
2 7.8128 10.1148 13.0614
2 10.9492 4.8398 7.31402
2 5.42866 1.80282 13.04
2 11.1128 5.90592 5.24424
2 6.51412 10.5421 10.9072
2 1.60557 6.21152 5.14306
2 6.78965 2.21766 10.8834
2 2.61404 6.30708 9.21401
2 6.35661 1.02225 1.63496
2 11.6462 6.68521 9.1476
2 5.88138 11.0532 1.67267
2 11.8221 10.9985 8.93352
2 3.34978 10.7855 2.36498
2 2.50418 3.59945 9.32915
2 8.90559 1.5768 3.21076
2 2.07732 8.88684 6.88703
2 8.54907 10.1445 2.79608
2 10.3292 4.41154 9.28824
2 3.57935 2.34452 1.92779
2 1.17798 3.30219 4.01367
2 8.90763 2.61196 10.2362
2 10.1298 8.19906 4.52599
2 4.18469 10.5559 9.48888
2 10.7862 3.05311 4.6637
2 4.01385 2.05723 10.7502
2 2.32753 8.32208 3.70132
2 9.05619 10.5025 10.7546
2 -0.0437854 10.1093 13.288
2 1.67642 12.3491 6.63354
2 11.6731 2.33813 -0.0715416
2 11.1396 12.1676 6.6011
2 11.6177 4.61323 1.17107
2 12.3754 0.93744 8.47385
2 0.328793 12.6369 12.6358
2 0.276379 12.2291 4.58141
2 11.149 2.31518 2.53472
2 9.9117 11.6991 8.64791
2 0.437131 10.142 2.92157
2 2.22731 1.15634 9.08157
2 9.00698 2.99631 1.01675
2 2.20488 11.916 8.52757
2 10.7029 9.68811 2.03033
2 10.0888 1.85875 8.13331
2 1.51489 10.7411 10.6023
2 2.63393 0.53145 4.06699
2 11.7925 2.34115 10.6981
2 10.7681 10.1174 4.84098
2 11.7212 10.2139 11.3832
2 10.4101 0.212054 4.68431
2 1.27709 1.95979 11.32
2 2.28748 10.7393 4.73398
1 11.6585 8.32734 8.38503
1 4.06435 10.723 0.857077
1 2.12963 4.83002 8.45263
1 7.94367 1.45459 1.34235
1 1.93442 8.25731 8.49127
1 7.38953 10.6366 1.26095
1 11.7391 5.22979 9.02433
1 5.0269 1.57405 1.15575
1 1.52404 4.40993 5.5605
1 8.23866 1.66473 11.3878
1 11.5169 7.48799 5.24765
1 4.72648 10.9616 10.9516
1 11.1903 4.4289 5.48146
1 5.38072 1.27675 11.508
1 1.91114 7.7427 5.26124
1 8.10084 10.9768 11.775
1 9.61032 9.3754 3.45828
1 2.50182 10.6106 9.18408
1 2.25699 2.15401 3.07037
1 10.4942 2.78711 9.5719
1 2.05453 9.8177 3.26831
1 10.4506 10.7271 9.94763
1 10.2052 1.78741 4.13868
1 2.42501 2.30426 10.2426
1 10.6884 3.1326 0.970005
1 10.6433 0.465897 7.73766
1 12.234 10.2821 1.52364
1 1.09221 0.21057 8.04687
1 0.173515 11.2365 11.8095
1 1.81846 12.2754 5.13369
1 -0.017132 1.41316 12.0735
1 11.3761 11.7429 5.01135
96
 Atoms. Timestep: 6000
2 -0.178157 7.93084 4.65132
2 4.32941 12.5426 11.4694
2 0.0206755 4.63385 4.53827
2 8.68993 0.113661 11.839
2 0.127956 4.5417 7.58425
2 7.96566 12.1751 1.44074
2 10.6781 9.0182 8.65884
2 3.93438 -0.0849785 1.26877
2 11.6312 8.39484 6.56051
2 4.7881 10.6633 12.9339
2 1.77812 3.8101 6.36393
2 8.28466 1.29811 -0.142974
2 0.54569 7.79797 8.93101
2 8.02375 11.2497 13.342
2 11.3309 4.83859 6.30414
2 4.43048 2.01493 -0.0933745
2 10.9694 6.50188 4.79094
2 6.46634 11.0312 11.068
2 2.34504 6.27618 4.65124
2 6.25896 1.44056 11.7788
2 2.39806 5.88607 8.78229
2 6.41323 0.796397 1.59422
2 11.5215 5.9466 8.70257
2 5.87016 11.5525 0.980256
2 11.2425 10.3297 10.805
2 3.19452 10.4047 1.91663
2 2.49307 3.27639 8.53944
2 9.45324 1.50237 2.25354
2 1.61073 8.36063 6.82557
2 8.3693 9.72693 2.30506
2 11.3035 3.34716 8.95876
2 3.8669 2.1368 2.64851
2 2.41516 3.43294 4.01147
2 8.9563 2.11865 10.4915
2 10.9209 9.30103 3.71937
2 3.8837 10.5621 10.4242
2 10.8786 3.33882 4.14869
2 4.10347 2.33306 10.2729
2 2.16996 8.87781 3.87434
2 8.99751 10.5619 10.9038
2 12.6068 10.0761 13.0869
2 1.08984 0.442122 6.64119
2 12.5606 2.01486 12.8994
2 9.75192 12.4989 6.71334
2 12.0057 3.08953 1.98658
2 12.2823 12.3552 8.51508
2 -0.414068 -0.153819 12.1911
2 3.78748 8.49682 8.90207
2 1.45017 1.84904 2.36983
2 9.75931 11.2331 8.45054
2 0.571355 10.4547 1.98683
2 1.85041 0.903817 8.58
2 12.7519 0.29427 2.28641
2 1.95289 10.9402 8.66592
2 10.9907 9.58533 1.70561
2 10.1843 0.787439 9.13377
2 0.744707 10.5913 10.6655
2 1.55452 0.71688 4.12482
2 12.0933 1.19749 10.4406
2 9.69711 11.487 3.74858
2 11.88 12.4271 6.2093
2 10.9409 1.30481 4.12574
2 1.37942 1.79402 10.604
2 0.860193 11.6537 4.21826
1 11.6479 7.76386 8.29482
1 4.09555 11.3785 0.862485
1 1.74406 4.4824 7.99672
1 8.17827 0.787453 1.6531
1 2.30225 7.80654 8.54872
1 7.46707 10.5389 1.08775
1 11.2828 4.63283 7.9849
1 4.81578 1.37481 1.59723
1 1.73997 4.78601 4.77321
1 7.95518 1.85807 11.8375
1 11.0699 8.145 4.99175
1 4.80386 10.9619 11.3592
1 11.452 4.96282 4.51095
1 4.69172 1.168 11.692
1 1.52776 7.89756 5.05439
1 7.88209 11.5249 11.7699
1 9.83642 10.1529 2.81984
1 2.05095 9.7241 10.0152
1 2.61897 1.84811 3.57216
1 10.5857 1.87628 10.1086
1 1.82624 10.6299 3.23643
1 9.874 10.3103 9.60545
1 10.5315 2.48021 2.87248
1 2.48736 1.8713 9.41528
1 0.00804894 1.91153 1.30192
1 10.6808 12.499 8.07112
1 12.4863 10.102 1.04815
1 1.21574 12.3841 8.57544
1 12.3355 11.0599 11.9215
1 0.456556 -0.132435 5.24884
1 0.252719 1.49226 11.7374
1 10.4165 12.6335 5.00332
96
 Atoms. Timestep: 8000
2 0.198246 8.65463 5.13488
2 4.96541 11.9723 10.594
2 12.965 4.89806 4.56101
2 8.37925 -0.202873 10.8729
2 0.228264 3.90356 7.67909
2 7.8279 0.0589342 1.19919
2 10.3188 8.28411 10.185
2 4.02245 11.8988 0.844169
2 11.0532 8.27295 6.93325
2 4.22566 10.2824 12.7483
2 2.29537 3.99617 5.70045
2 8.50901 1.72318 12.9974
2 12.8506 7.19907 8.76784
2 8.11148 11.0491 13.2289
2 11.1304 5.09701 6.40478
2 4.15153 0.818381 12.6176
2 11.2762 7.23019 4.66292
2 6.22555 10.4309 11.7123
2 1.88769 6.21759 4.73185
2 6.30657 1.55037 11.2455
2 1.47614 5.53151 7.61167
2 5.58361 1.42081 0.745853
2 10.6191 6.21116 8.05547
2 6.44829 11.042 1.62863
2 11.5805 10.2897 11.8348
2 4.14037 9.73014 2.44706
2 2.75314 2.9436 8.32441
2 8.52403 2.87513 1.80768
2 1.25133 7.97839 6.77432
2 8.79433 10.9105 2.94263
2 10.7818 3.45746 9.43571
2 2.76587 1.30757 1.14767
2 2.25723 3.96677 3.21912
2 8.52895 1.96296 10.1567
2 10.7072 10.2143 5.36305
2 3.88856 9.68032 10.2567
2 10.1759 4.5854 3.6722
2 3.77751 1.69953 10.0729
2 1.78428 8.76608 3.85816
2 9.19699 10.1801 11.8293
2 0.308884 10.7038 0.248459
2 1.83232 0.117909 6.54678
2 11.6172 1.58156 13.0519
2 11.8748 12.9098 7.32065
2 11.1348 2.31534 1.90835
2 0.677395 11.6634 8.76835
2 0.0824353 12.5484 11.3603
2 2.43128 8.36381 8.84807
2 0.763772 1.33011 1.64786
2 11.0161 10.8808 9.8311
2 1.49981 10.5846 2.39567
2 1.48751 0.617605 9.78402
2 0.433095 12.0523 3.23627
2 3.2457 11.5879 8.79447
2 11.4248 11.0406 2.98158
2 9.8615 1.19451 7.73215
2 1.36634 10.3213 10.8688
2 1.76267 1.72689 3.87473
2 11.1012 1.27606 10.4357
2 9.94503 12.423 5.08802
2 12.4031 0.658022 5.41935
2 10.2124 2.14832 4.638
2 0.841941 2.32467 10.8276
2 0.160667 11.5478 5.1809
1 10.948 7.68159 8.60121
1 4.9525 10.6062 1.20352
1 2.12174 3.87879 7.28403
1 7.25819 1.6942 0.910794
1 1.53068 7.19106 8.15569
1 8.11105 11.4063 1.46851
1 11.5559 4.39292 8.11795
1 4.16271 0.809462 0.547061
1 1.64301 4.65599 4.60027
1 7.95835 1.38348 11.416
1 11.4686 8.67814 5.37947
1 4.84312 10.352 11.1453
1 11.1987 5.36161 4.68367
1 4.73189 0.744947 11.1112
1 1.34296 7.56201 5.06645
1 7.69315 11.3412 11.7231
1 10.1483 11.2487 3.93819
1 2.50206 9.97017 9.65377
1 2.07748 2.28266 2.42119
1 10.0568 1.82199 9.31557
1 2.68967 9.47913 2.71495
1 10.406 9.78222 10.7123
1 9.98492 2.91682 3.06855
1 2.26319 2.4501 9.73026
1 12.0854 1.05997 1.17682
1 11.9703 11.509 8.75556
1 -0.143973 11.5796 1.89208
1 1.86093 12.6856 8.11615
1 0.147265 10.8639 11.896
1 0.863897 0.105055 4.67013
1 12.4955 1.24208 11.468
1 10.8209 0.624782 5.94754
96
 Atoms. Timestep: 10000
2 0.18447 7.22944 5.24477
2 4.37134 12.1866 11.5512
2 11.4619 3.33725 5.53122
2 8.45512 11.8652 11.8709
2 12.7733 4.85255 8.18391
2 7.78816 0.235956 1.86197
2 10.9278 8.70866 9.4303
2 4.10109 0.0709281 1.7757
2 11.7235 8.32145 6.76112
2 4.04851 10.7097 -0.0878968
2 1.18986 3.93743 6.58154
2 7.82815 1.57162 12.9502
2 0.251591 7.28415 8.70844
2 8.02622 10.609 0.258372
2 9.86636 4.91583 7.36028
2 4.32913 0.950135 -0.304116
2 10.5118 6.40533 5.41565
2 6.64439 10.3315 12.565
2 2.13697 6.18259 4.95075
2 6.15976 0.546665 11.2803
2 2.25541 5.17968 8.47779
2 6.13887 2.22984 1.48278
2 11.1205 6.43973 8.11581
2 6.28294 11.2467 2.17981
2 11.6181 10.7294 11.3999
2 4.21562 9.86576 2.58255
2 1.52508 2.48929 8.61902
2 8.71859 2.83529 1.59091
2 2.14096 7.58399 7.07489
2 9.10464 11.2031 2.93852
2 10.5879 2.93276 9.09847
2 3.58415 2.53516 1.41066
2 1.27232 3.5091 3.6387
2 8.6014 1.34223 10.4031
2 10.7625 9.31388 4.06993
2 4.47807 9.93687 10.7089
2 10.1106 4.15456 4.06551
2 3.87301 1.63779 10.877
2 2.77984 8.40945 4.33787
2 9.36698 9.49554 11.3432
2 0.694374 11.0459 13.2928
2 12.3668 1.34147 3.96655
2 12.0859 2.64182 13.0998
2 11.3688 0.0978347 6.31783
2 11.1507 2.86063 2.38242
2 0.268053 11.9111 7.92245
2 12.356 0.401222 12.1238
2 3.29083 7.75275 9.46042
2 0.902688 3.22994 1.06093
2 10.7498 10.9026 8.80723
2 1.36128 9.10892 2.0991
2 2.29707 13.0263 9.48865
2 0.578539 12.021 1.44268
2 2.05499 9.98882 8.54321
2 12.2582 10.012 2.38775
2 10.8081 0.108177 9.11523
2 0.179959 11.8051 10.1032
2 1.30081 1.54345 3.16611
2 12.1169 1.53093 10.3284
2 10.8712 12.3778 4.26112
2 12.6895 1.66754 1.35591
2 9.90884 1.74411 3.91991
2 1.37002 1.8722 11.3956
2 11.5914 12.2415 2.39912
1 11.815 8.06078 8.34756
1 4.53015 11.2685 1.58147
1 1.16284 3.94622 8.19984
1 7.66295 1.71166 0.966673
1 2.02807 6.95702 8.40793
1 7.90944 11.6688 1.64442
1 10.8828 4.80179 8.47943
1 4.67681 1.60526 1.10182
1 1.6076 4.72027 5.06311
1 7.67897 0.512945 11.6342
1 11.4738 7.69203 5.19131
1 4.64748 10.6595 12.1579
1 10.3906 4.88348 5.72571
1 4.72603 0.754158 11.7862
1 1.6899 7.79602 5.31701
1 8.27233 10.2006 12.43
1 10.7596 10.9109 3.15116
1 3.27247 9.43357 9.53614
1 2.05711 2.88322 2.03301
1 10.5248 1.59276 9.79922
1 2.98966 8.78305 2.65556
1 10.804 10.1704 10.2289
1 9.71866 3.10147 2.85169
1 2.52557 1.61291 9.83976
1 12.2109 3.26682 1.31947
1 11.441 12.1314 7.70484
1 0.284734 10.1524 1.28342
1 1.36415 11.7222 8.9402
1 -0.0707016 12.0565 11.7677
1 0.0320695 0.526387 2.30111
1 -0.136887 1.85987 11.8124
1 11.1652 1.31846 5.28317
96
 Atoms. Timestep: 12000
2 12.4873 7.04244 5.04978
2 4.28729 12.4512 11.5509
2 11.7756 3.40601 5.86697
2 8.4263 12.4437 11.3839
2 0.453497 5.19474 8.61983
2 8.40967 11.9133 0.456529
2 11.5769 9.4782 8.85446
2 4.52978 11.2582 2.00006
2 10.6388 7.85707 6.97626
2 4.83951 10.1262 13.046
2 1.86704 3.52429 7.8299
2 8.00414 1.01004 13.2699
2 0.599165 8.14756 7.37508
2 7.63113 10.2226 12.4907
2 10.7921 5.39245 7.10247
2 4.57092 0.96558 0.418175
2 10.5739 5.73146 4.73119
2 6.15941 10.852 10.6197
2 1.95402 5.46814 5.40142
2 5.90508 1.03056 11.894
2 2.46143 6.18125 7.97877
2 6.28615 0.282813 1.60931
2 11.6045 6.80755 8.79015
2 6.76366 9.89652 1.12546
2 10.819 11.3708 11.4102
2 4.38186 9.03275 2.0055
2 2.28971 4.53659 10.2467
2 8.95246 1.77578 1.8029
2 1.78122 7.98421 5.74567
2 9.61135 10.6331 1.88472
2 10.5428 3.95891 8.98384
2 3.31334 1.45247 2.14259
2 2.53467 2.90995 4.21865
2 8.09519 1.7083 10.045
2 10.2201 8.86472 4.37861
2 3.98242 9.98747 10.3935
2 9.27299 3.41986 4.57791
2 3.34149 2.07796 11.9736
2 2.14406 7.87537 3.56174
2 9.06921 10.3665 10.3091
2 -0.0600853 11.214 13.2262
2 12.7743 0.24222 4.48896
2 12.1804 1.65774 -0.00755456
2 11.1165 0.759743 6.46133
2 11.2824 2.95274 2.34351
2 0.0636591 -0.060483 8.03362
2 11.5211 0.549645 11.9479
2 2.82429 8.93543 8.10241
2 1.35796 2.81059 1.74126
2 10.646 11.691 8.7201
2 1.83962 9.66027 1.24271
2 2.22501 1.87882 9.71821
2 0.809888 11.8027 1.4429
2 1.56551 11.4492 9.07975
2 11.9111 9.73643 1.72003
2 10.9534 1.41118 9.26121
2 12.9236 12.4198 10.32
2 2.01183 -0.350437 4.08899
2 10.7273 2.15089 11.1243
2 10.7927 1.41198 3.81196
2 0.067232 1.14667 2.66806
2 8.76304 1.28355 4.73884
2 0.397832 2.29454 11.3156
2 12.2228 11.2171 3.50849
1 11.9796 8.12501 8.07671
1 5.35194 10.2269 1.20927
1 2.06013 4.92252 8.84315
1 7.92174 0.312416 1.1375
1 2.15797 7.70761 7.33585
1 8.3101 10.3064 0.660774
1 11.7157 5.21193 8.60418
1 4.47261 0.12805 1.96629
1 2.11438 3.66658 5.9201
1 7.8292 0.944453 11.5847
1 10.7827 7.4613 5.23201
1 4.96352 10.8278 11.5606
1 10.5831 4.39791 5.52255
1 4.42256 0.914601 12.4233
1 1.20829 6.8536 4.57579
1 7.73629 11.0754 11.095
1 10.967 10.1365 2.90056
1 2.72935 10.2466 9.08338
1 3.14182 2.88778 2.75607
1 9.82403 2.46461 9.67288
1 2.95536 8.57091 2.36754
1 10.6246 10.6462 10.0355
1 9.4146 2.56017 3.31175
1 1.98784 2.94762 11.2667
1 12.4545 2.22063 1.50213
1 11.3161 0.345817 8.02157
1 0.226867 10.4466 0.847305
1 1.25961 0.157053 9.1205
1 12.0281 11.9474 12.1754
1 0.773929 12.4036 3.13797
1 11.9099 2.37491 12.0631
1 11.9274 1.67777 5.2005
96
 Atoms. Timestep: 14000
2 0.0760361 7.26957 5.12707
2 5.09608 12.9317 12.4871
2 12.0239 2.41504 5.44624
2 8.69661 12.5839 12.4569
2 -0.240646 4.26914 8.56764
2 8.33554 12.8539 2.28585
2 10.649 8.67255 9.4197
2 3.99465 12.4737 1.2424
2 10.751 8.11498 6.37441
2 5.20206 10.894 13.4469
2 1.8356 4.27095 6.8887
2 7.25911 0.818948 13.3111
2 -0.222891 8.23998 8.24389
2 8.70462 10.9099 0.269254
2 11.2462 4.15627 6.71042
2 4.82596 1.93693 0.133148
2 10.9399 5.71072 4.74672
2 6.69737 10.7855 11.5029
2 2.27889 6.1894 5.51067
2 6.79428 1.83262 11.7145
2 1.75515 6.60966 8.54832
2 5.89166 0.82709 1.52661
2 10.5711 6.07778 8.24147
2 6.73581 10.5314 1.87808
2 11.9981 9.82937 10.6049
2 3.77067 9.79195 1.60922
2 2.14123 3.80725 9.60983
2 8.67186 1.95002 1.38629
2 2.05341 8.13968 6.56486
2 9.61874 10.3001 2.88389
2 10.5304 3.6275 9.16402
2 3.50732 1.91383 2.58994
2 1.68884 3.12517 4.47715
2 9.12742 1.62652 10.674
2 11.7901 8.60041 3.99295
2 3.67988 11.0418 10.4749
2 10.4228 3.84091 3.71236
2 3.9041 1.86629 10.8641
2 2.22622 8.56483 3.83116
2 8.62705 10.5698 10.6451
2 -0.0833047 10.1583 12.6934
2 11.7065 -0.143638 4.64357
2 -0.30879 0.847607 -0.22532
2 10.2034 0.213022 6.45065
2 11.3141 2.0994 1.67269
2 11.9485 12.0899 8.65669
2 0.112392 12.1404 11.041
2 1.28599 9.83783 8.90375
2 0.981937 1.89056 2.29828
2 9.99174 11.0346 8.55959
2 1.00051 9.17419 1.38913
2 2.40932 1.52262 9.26528
2 1.44684 0.317133 3.62669
2 1.57924 12.2552 9.05526
2 11.7229 10.2046 1.47752
2 10.7245 1.05682 9.01173
2 3.13215 0.977189 6.73747
2 12.5443 10.9598 3.54938
2 11.804 1.99003 11.4391
2 9.2672 1.78944 4.0633
2 12.5356 -0.197683 2.28869
2 10.2953 3.69066 0.829648
2 1.27602 1.67144 11.6873
2 0.766537 0.0328798 5.50465
1 11.1738 7.81199 7.9956
1 5.03921 11.0492 1.28421
1 1.24177 4.92126 8.48047
1 7.50544 0.942279 1.31733
1 1.275 8.20762 8.1114
1 8.31522 10.8243 1.91852
1 11.2625 4.53487 8.23979
1 4.30959 0.868424 1.30215
1 2.13352 4.46307 5.25221
1 8.21496 0.900699 11.9483
1 11.358 7.36329 5.06486
1 4.93965 11.2484 11.5138
1 11.6285 3.93271 4.91813
1 4.94454 1.46196 12.2856
1 1.7468 7.52201 5.15879
1 8.09276 11.0249 12.1934
1 11.1917 9.80879 2.87
1 2.05966 11.0005 9.89739
1 2.205 1.83559 3.52528
1 10.7235 2.36605 10.2733
1 2.34695 9.20731 2.46279
1 10.1218 10.1911 10.0106
1 9.81686 2.67379 2.42678
1 2.31309 2.47571 10.5144
1 12.5402 1.2315 1.28955
1 10.5118 12.7639 8.07963
1 -0.0458865 10.1542 0.727655
1 1.82893 0.495735 7.95391
1 0.0176252 10.4791 11.2416
1 -0.179038 12.7772 3.79288
1 -0.0888752 0.659763 11.9443
1 10.6207 1.09618 5.00261
96
 Atoms. Timestep: 16000
2 0.246136 6.49958 4.13357
2 4.4715 11.6996 11.4778
2 11.0512 2.59465 5.41831
2 8.57598 12.4584 11.0019
2 12.1603 4.91105 8.62051
2 8.11943 12.3554 1.41824
2 11.2874 9.10194 9.14201
2 5.39934 11.5514 1.86488
2 11.6866 7.9016 6.32856
2 5.18433 10.0847 12.6867
2 1.81002 4.5823 7.25802
2 7.04023 1.83461 12.6712
2 0.46648 7.93588 8.05474
2 8.7878 10.9649 13.0925
2 9.9057 4.87374 7.02089
2 4.70319 0.183425 13.3378
2 10.8705 5.58362 4.697
2 7.04317 10.3452 11.3103
2 2.33145 4.97001 5.32691
2 5.65343 1.27303 10.8474
2 1.41043 6.44963 9.04841
2 5.84314 1.32932 1.66353
2 10.6778 6.76217 8.87289
2 6.63921 9.89593 0.776623
2 0.265765 10.6878 10.9068
2 3.99015 9.09459 1.99502
2 1.54819 3.98281 10.0788
2 8.46167 2.44454 1.44132
2 1.98028 7.46453 6.34794
2 9.42652 9.86046 2.89258
2 10.3213 4.0577 9.68246
2 3.67619 1.35813 2.53541
2 2.8422 2.94359 4.57108
2 8.44606 2.33721 10.5059
2 11.0274 7.95823 3.68018
2 4.5154 10.2688 9.27638
2 7.69403 3.38366 3.19692
2 3.04333 2.11725 11.7024
2 2.78467 7.48788 3.47927
2 10.1881 10.58 11.2576
2 0.906982 10.6406 13.1356
2 0.0159585 0.183635 5.24719
2 11.6586 1.26275 1.14646
2 10.9415 0.718017 7.14932
2 9.92273 2.73541 3.16613
2 0.0780928 0.275576 8.30269
2 12.7528 0.0536696 12.3397
2 2.83111 9.1419 7.7937
2 0.747422 2.42126 3.04027
2 11.109 11.6479 9.07314
2 1.59303 9.06088 1.31758
2 1.73672 1.46964 9.56218
2 1.43979 0.686841 3.74093
2 2.37591 12.4124 8.25269
2 12.0336 9.40818 2.04647
2 10.3083 1.53086 9.24827
2 1.93448 2.31739 6.9665
2 12.0931 10.6688 3.7473
2 10.9236 1.90901 11.6332
2 7.71508 5.26827 1.86385
2 12.0959 0.834027 3.23087
2 10.3256 4.48532 1.21865
2 0.352038 2.30638 12.0312
2 0.922957 11.2588 2.4551
1 11.684 7.90928 8.16385
1 4.9531 10.0668 1.06628
1 1.06497 4.82033 8.86372
1 7.30918 1.03004 0.978562
1 1.99679 7.88524 7.8691
1 8.47888 10.4186 1.52185
1 10.3907 5.19942 8.46743
1 4.53392 0.262156 1.59379
1 2.55973 3.77361 6.31367
1 7.39317 1.24063 11.0097
1 11.714 7.07317 4.81806
1 5.35925 10.4544 11.1179
1 10.4897 4.14056 5.72119
1 4.25558 0.93431 11.6926
1 1.79819 6.62879 4.63261
1 8.48929 10.907 11.5195
1 10.8844 9.51348 3.27522
1 3.05688 10.8879 8.27653
1 2.36891 1.93007 3.37695
1 10.1712 2.70977 10.3446
1 2.73208 8.31453 2.05596
1 11.4186 10.3669 10.2354
1 8.98487 3.79175 2.33883
1 1.66597 2.45172 10.9338
1 11.6097 2.27095 2.75924
1 11.3138 0.471551 8.6789
1 0.543792 10.1531 1.17727
1 1.67153 1.07489 8.09801
1 1.08838 11.4348 11.8283
1 0.276091 12.097 3.49782
1 11.8944 1.37353 12.8642
1 11.828 1.20807 5.99879
96
 Atoms. Timestep: 18000
2 0.0975643 6.66279 4.93817
2 4.77911 0.288373 11.2378
2 12.072 3.54011 5.58695
2 8.82101 0.0614929 11.3527
2 12.307 6.2867 8.64298
2 7.73835 11.3253 0.966045
2 10.8235 8.78837 9.04502
2 4.5511 11.7865 1.06449
2 10.5678 7.47363 6.67436
2 4.66554 10.6462 12.6007
2 1.10105 4.43771 7.43621
2 8.21074 1.4815 13.1556
2 0.201066 8.68629 8.05485
2 8.82461 10.0144 12.752
2 9.56196 4.48546 7.30302
2 4.55107 1.66725 13.1965
2 10.7426 5.70626 5.29525
2 6.77706 11.192 10.6374
2 1.92827 5.24487 5.52191
2 6.50343 1.78018 10.956
2 1.97493 6.75829 8.57307
2 6.3959 1.17845 1.86561
2 10.0157 6.63866 8.55113
2 6.53092 9.68288 0.493065
2 12.3085 10.4412 10.5561
2 4.93886 8.7372 1.59367
2 1.73178 4.97709 10.8094
2 8.83619 1.07651 2.49894
2 2.05344 7.20189 6.03928
2 9.55458 9.00815 1.22798
2 10.0603 4.22928 9.31303
2 3.37076 0.925731 2.82795
2 2.26792 2.95878 4.87548
2 9.41324 2.31224 10.7878
2 10.917 8.51968 3.78326
2 4.60101 10.61 9.20322
2 9.22897 3.35313 4.82286
2 3.83803 2.31735 10.9005
2 2.77156 7.10194 2.88061
2 9.72713 10.9822 10.1559
2 0.934524 10.6621 12.6923
2 10.8946 11.8012 5.2576
2 12.2606 2.2902 1.08984
2 10.4541 0.860076 7.28177
2 10.0348 2.75421 2.99726
2 0.776342 0.561848 8.10059
2 12.2931 0.394888 11.6685
2 2.78097 9.82944 7.62312
2 0.531397 2.03415 3.38844
2 11.1296 11.61 8.33373
2 2.73587 9.2103 1.82794
2 1.73391 2.35439 9.48675
2 0.800158 -0.209215 4.55544
2 3.2894 0.140029 7.89267
2 0.298247 8.86334 1.63808
2 11.7981 2.08 9.185
2 1.44578 2.54163 7.12545
2 11.6999 10.8538 2.49759
2 12.0278 2.99309 11.4107
2 8.88632 1.09356 5.38532
2 11.0956 0.483993 3.06488
2 6.97495 2.50051 4.36736
2 1.30573 2.41678 12.0237
2 1.9123 11.2498 1.59792
1 11.3286 7.7421 8.05132
1 4.9083 10.2267 0.922098
1 1.11675 5.552 9.20066
1 7.84167 0.470078 1.17604
1 1.76435 8.09145 7.48634
1 8.06557 9.69821 0.907723
1 8.85197 5.157 8.80932
1 4.49419 0.723739 1.66107
1 1.1836 3.68383 5.89179
1 8.12354 1.59388 11.6222
1 10.9983 7.23942 5.09934
1 5.3252 11.3341 10.956
1 10.5974 4.15157 5.93963
1 5.2135 1.80981 11.7188
1 1.97516 6.57288 4.27924
1 8.6064 11.051 11.3894
1 11.1879 9.39075 1.89844
1 3.70491 11.047 7.88116
1 1.82122 1.35436 4.19934
1 10.9463 3.01354 10.2548
1 3.82546 8.17764 2.46284
1 11.0535 10.3239 9.23209
1 8.57785 2.01733 3.82459
1 2.34759 3.25621 11.0064
1 11.4571 2.35011 2.66274
1 11.7087 0.604898 8.38689
1 1.55924 9.67796 0.807984
1 2.10827 1.3724 8.28758
1 12.6898 11.4702 11.7154
1 11.8962 11.9985 3.86844
1 12.581 1.86179 12.642
1 9.94428 12.6464 5.99198
96
 Atoms. Timestep: 20000
2 0.993962 8.26871 5.98322
2 5.00032 11.4365 11.0025
2 0.189412 4.06416 5.57598
2 8.11547 11.938 11.8705
2 0.0128069 6.46087 9.48058
2 8.46494 12.3879 2.1858
2 11.0219 9.39025 8.37506
2 4.66172 10.7224 1.39898
2 10.9691 7.76513 7.04039
2 4.23519 8.07792 11.3024
2 0.985807 4.76859 7.7564
2 7.7675 1.71993 0.330226
2 0.364614 8.33605 7.97186
2 8.80441 9.16177 11.7307
2 10.273 5.32118 6.73061
2 3.58035 12.6004 0.109961
2 11.4624 6.20085 5.12034
2 6.43113 9.36622 11.6956
2 2.7563 4.97221 5.69136
2 6.0301 1.30401 11.3664
2 1.79576 6.67753 7.97818
2 5.64675 0.348028 2.3145
2 10.6598 6.33967 8.66246
2 6.9667 9.85455 2.26868
2 10.9139 11.2926 10.556
2 4.55565 7.92667 1.54869
2 1.82648 4.61621 10.6938
2 7.57838 2.88055 2.41187
2 2.94774 7.56388 5.96078
2 10.0114 10.0311 1.81415
2 10.6222 3.64844 9.37943
2 2.79388 0.515863 2.62482
2 2.26605 2.7581 5.03227
2 8.79444 1.96429 10.6468
2 10.9963 8.82626 4.26766
2 4.04149 9.98729 9.21722
2 10.2305 4.24384 3.7918
2 3.9732 2.44167 11.7224
2 3.40543 6.17453 3.64181
2 8.35329 10.2599 10.023
2 0.606696 10.3192 12.8497
2 10.4244 0.806738 4.67992
2 11.7668 1.40586 0.359627
2 9.50895 1.08934 7.11242
2 10.5457 3.37151 1.87512
2 0.228854 0.8838 8.09334
2 0.361961 0.113248 11.883
2 2.73685 9.7615 7.35538
2 1.16233 2.66843 2.09811
2 9.76059 11.9913 8.59537
2 1.84836 7.91229 1.48487
2 2.97197 2.38007 9.292
2 0.550792 1.5599 4.40215
2 2.84807 0.329763 7.32145
2 0.480975 9.3619 2.44904
2 11.0702 0.990471 9.40725
2 2.06815 2.87522 7.1668
2 11.4314 11.2188 3.87366
2 11.9639 2.53875 11.1054
2 8.64896 2.80948 4.74101
2 11.3581 1.02934 2.5286
2 7.80251 4.79555 3.30867
2 1.85984 2.57023 11.7688
2 2.66283 10.9621 1.46049
1 11.436 7.57078 8.56368
1 5.62842 9.38777 1.34166
1 1.29952 5.45228 9.19776
1 7.36094 1.2337 2.05755
1 1.99205 8.06722 7.34404
1 8.41265 10.6772 1.90561
1 10.6003 4.78912 8.29773
1 4.01956 12.1779 1.79188
1 1.71189 3.96915 6.12217
1 7.69342 1.10568 11.7295
1 11.6124 8.01445 5.47105
1 4.66377 9.46276 10.8774
1 11.0568 4.7209 5.28297
1 4.49345 0.993857 11.6045
1 3.4816 6.35659 5.12168
1 7.64702 10.5043 11.415
1 11.4905 9.89117 2.83608
1 3.64267 11.0046 7.91011
1 2.05502 1.72854 3.70362
1 10.3978 2.56895 10.6482
1 3.13541 7.44783 2.22537
1 9.90575 10.5746 9.4783
1 9.15243 3.41236 2.81834
1 2.85006 3.24344 10.7381
1 11.9232 2.52169 1.70964
1 10.9018 0.478097 7.78534
1 1.54317 9.69958 1.25067
1 2.03933 1.56807 8.09113
1 12.2327 11.0689 11.4861
1 11.7279 0.284359 3.89138
1 0.481682 1.63268 12.1755
1 8.88837 1.28306 5.30205
96
 Atoms. Timestep: 22000
2 1.52833 7.62507 5.24025
2 4.11679 -0.161783 10.8186
2 12.4749 3.77047 6.42467
2 7.7519 11.9863 11.3153
2 1.07331 7.0264 8.88707
2 8.08911 11.9386 2.2687
2 10.8556 8.90147 8.79889
2 4.89931 11.1741 1.24323
2 12.0146 7.62831 6.65923
2 3.19201 10.5722 10.808
2 1.70307 4.94049 7.27657
2 7.29358 1.30206 0.354522
2 1.27713 8.44261 7.38766
2 6.71761 9.71553 12.5057
2 9.96667 4.74598 7.12563
2 4.63614 0.59238 0.0737306
2 11.3907 5.85885 5.30323
2 6.24392 10.4461 10.1627
2 2.05147 4.96747 4.55575
2 5.71387 1.25262 11.5493
2 3.08775 6.78933 7.93635
2 5.59433 0.449617 2.17776
2 11.1068 6.32974 8.67196
2 7.34528 9.37537 1.86095
2 11.0667 10.3125 11.188
2 4.68904 9.19285 1.67814
2 2.24833 5.05047 9.88986
2 7.98206 1.85897 2.88625
2 3.47254 7.04997 5.31055
2 10.0476 9.55251 2.43342
2 10.0826 4.21921 10.0814
2 3.58771 0.843215 2.78044
2 1.95603 2.54987 4.77206
2 8.27768 2.29384 11.5464
2 11.8592 8.23298 3.95953
2 4.10493 11.4649 8.88816
2 9.82598 3.33455 4.97419
2 3.00818 2.57563 11.7576
2 3.67401 6.54546 2.37433
2 9.0428 10.1031 10.8937
2 1.21245 10.4023 12.5381
2 11.1083 0.218052 5.42452
2 11.5628 1.33441 0.460367
2 9.27109 0.680275 7.44805
2 10.8959 2.93578 2.66091
2 12.2795 1.15232 8.36356
2 -0.211758 0.123333 11.4565
2 3.00627 9.74432 6.46095
2 0.924038 1.74551 2.35651
2 10.9905 11.575 9.59715
2 2.1986 8.81203 1.53556
2 1.8465 2.28166 9.54006
2 0.57254 0.94827 4.80579
2 2.4825 0.42635 7.74726
2 0.130013 10.5471 1.77214
2 9.92695 1.7843 9.43622
2 2.07044 2.74293 7.30368
2 12.0202 10.7082 4.00251
2 10.8968 2.52458 11.4301
2 8.58777 1.72372 4.83503
2 11.7934 0.32188 3.25065
2 8.87935 4.40131 2.68555
2 0.624481 2.60983 11.5891
2 2.75052 11.6381 1.3654
1 12.3285 7.84124 8.22693
1 5.93996 9.73877 0.959636
1 2.10009 5.73601 8.60337
1 7.12906 0.706283 2.00614
1 2.64303 8.14566 6.41071
1 8.47312 10.2909 2.53955
1 10.3562 5.08428 8.80953
1 4.08627 12.6254 1.55934
1 1.60611 3.84968 5.72746
1 7.24766 1.1159 11.9937
1 0.00446793 7.05739 5.37931
1 4.72713 11.0118 10.2713
1 10.9914 4.25703 5.72993
1 4.03569 1.13794 11.9087
1 3.18668 6.2325 4.0732
1 7.38067 10.2334 11.0654
1 11.5134 9.68569 2.79173
1 3.10018 11.456 7.40594
1 1.82905 1.21276 3.77363
1 9.51132 2.80889 10.7903
1 3.81609 7.95969 1.29815
1 10.256 9.94268 9.82519
1 9.20161 2.956 3.62128
1 1.91508 3.63164 10.7313
1 12.0007 1.8659 1.94167
1 10.6961 0.51354 8.76706
1 1.49855 10.1885 1.15348
1 1.23077 1.61871 8.16615
1 12.638 11.1612 11.6313