96
 Atoms. Timestep: 0
2 0 7.95642 4.74695
2 4.63304 0 11.358
2 0 4.63304 4.74695
2 7.95642 0 11.358
2 0 4.63304 8.47514
2 7.95642 0 1.8641
2 0 7.95642 8.47514
2 4.63304 0 1.8641
2 10.7421 8.43088 6.61105
2 4.15858 10.7421 0
2 1.84736 4.15858 6.61105
2 8.43088 1.84736 0
2 1.84736 8.43088 6.61105
2 8.43088 10.7421 0
2 10.7421 4.15858 6.61105
2 4.15858 1.84736 0
2 10.5201 6.29473 5.04003
2 6.29473 10.5201 11.6511
2 2.06934 6.29473 5.04003
2 6.29473 2.06934 11.6511
2 2.06934 6.29473 8.18207
2 6.29473 2.06934 1.57102
2 10.5201 6.29473 8.18207
2 6.29473 10.5201 1.57102
2 10.1594 8.65935 9.20274
2 3.93011 10.1594 2.59169
2 2.43004 3.93011 9.20274
2 8.65935 2.43004 2.59169
2 2.43004 8.65935 9.20274
2 8.65935 10.1594 2.59169
2 10.1594 3.93011 9.20274
2 3.93011 2.43004 2.59169
2 2.43004 3.93011 4.01936
2 8.65935 2.43004 10.6304
2 10.1594 8.65935 4.01936
2 3.93011 10.1594 10.6304
2 10.1594 3.93011 4.01936
2 3.93011 2.43004 10.6304
2 2.43004 8.65935 4.01936
2 8.65935 10.1594 10.6304
2 0 10.703 0
2 1.88643 0 6.61105
2 0 1.88643 0
2 10.703 0 6.61105
2 0 0 1.872
2 0 0 8.48305
2 0 0 11.3501
2 0 0 4.73905
2 11.2706 2.31295 2.18973
2 10.2765 11.2706 8.80078
2 1.31887 10.2765 2.18973
2 2.31295 1.31887 8.80078
2 1.31887 2.31295 2.18973
2 2.31295 11.2706 8.80078
2 11.2706 10.2765 2.18973
2 10.2765 1.31887 8.80078
2 1.31887 10.2765 11.0324
2 2.31295 1.31887 4.42131
2 11.2706 2.31295 11.0324
2 10.2765 11.2706 4.42131
2 11.2706 10.2765 11.0324
2 10.2765 1.31887 4.42131
2 1.31887 2.31295 11.0324
2 2.31295 11.2706 4.42131
1 11.0086 7.83654 8.10972
1 4.75292 11.0086 1.49867
1 1.5809 4.75292 8.10972
1 7.83654 1.5809 1.49867
1 1.5809 7.83654 8.10972
1 7.83654 11.0086 1.49867
1 11.0086 4.75292 8.10972
1 4.75292 1.5809 1.49867
1 1.5809 4.75292 5.11238
1 7.83654 1.5809 11.7234
1 11.0086 7.83654 5.11238
1 4.75292 11.0086 11.7234
1 11.0086 4.75292 5.11238
1 4.75292 1.5809 11.7234
1 1.5809 7.83654 5.11238
1 7.83654 11.0086 11.7234
1 10.1088 10.1088 3.30552
1 2.48067 10.1088 9.91657
1 2.48067 2.48067 3.30552
1 10.1088 2.48067 9.91657
1 2.48067 10.1088 3.30552
1 10.1088 10.1088 9.91657
1 10.1088 2.48067 3.30552
1 2.48067 2.48067 9.91657
1 0 1.60471 1.57853
1 10.9848 0 8.18958
1 0 10.9848 1.57853
1 1.60471 0 8.18958
1 0 10.9848 11.6436
1 1.60471 0 5.03252
1 0 1.60471 11.6436
1 10.9848 0 5.03252
96
 Atoms. Timestep: 2000
2 -0.145299 7.10971 4.95028
2 4.21046 12.1311 11.3713
2 12.4356 4.08279 4.76222
2 8.26227 12.8478 12.3522
2 12.5642 5.60108 8.59441
2 8.25553 12.3807 2.0693
2 12.2064 8.35132 7.58793
2 4.71559 11.9453 1.68912
2 10.4114 7.7587 6.37075
2 4.48017 10.4958 -0.213066
2 1.41045 4.43306 6.95363
2 7.75046 1.64073 0.418949
2 1.53137 8.19463 6.32291
2 8.25994 11.2196 -0.183076
2 10.8972 3.78132 7.48564
2 4.85568 0.557445 13.2153
2 10.745 5.55255 4.57451
2 6.30431 11.0481 11.3157
2 1.47474 5.69857 5.07922
2 6.27781 0.891945 11.5761
2 0.874682 7.01284 8.50574
2 6.22339 0.505364 1.84158
2 10.0319 6.71916 8.66847
2 6.66282 9.93498 1.59662
2 10.2736 9.44934 9.19858
2 3.12005 9.85175 1.54784
2 1.69028 4.75656 9.81735
2 10.0668 3.39735 2.27008
2 2.02685 9.84962 8.40593
2 9.20142 9.73468 2.47474
2 10.268 4.49473 10.0995
2 4.544 1.32595 2.63029
2 2.23853 3.46079 4.39439
2 8.76389 2.38614 11.405
2 11.2889 8.557 3.21826
2 3.58423 10.2188 10.7743
2 10.3816 2.8217 4.61053
2 3.62642 2.32951 10.9075
2 1.9132 8.67323 3.66589
2 8.93422 10.986 10.521
2 -0.236053 10.9853 13.13
2 1.56121 0.527436 6.52546
2 12.677 1.52915 -0.24044
2 10.8791 -0.16033 6.11044
2 11.9301 1.48887 2.00623
2 0.024869 0.529658 8.08499
2 0.335105 0.127598 11.441
2 -0.0019575 11.9913 5.09133
2 8.82108 2.08198 3.23985
2 11.0001 11.6289 8.63082
2 1.26079 10.9243 1.47741
2 2.02666 1.90047 8.78822
2 1.3552 2.48261 2.10736
2 2.49468 12.3641 8.906
2 11.2266 11.1285 1.59881
2 10.277 1.13087 8.62947
2 0.709755 10.6471 10.3954
2 2.4429 0.984288 4.18805
2 11.3797 2.13655 10.8475
2 11.3817 11.0383 3.88289
2 11.4574 11.2639 11.387
2 10.8022 0.718352 4.02781
2 0.730631 2.34031 11.2977
2 2.37159 11.8761 3.75198
1 10.621 8.09593 8.1198
1 4.96375 10.1312 1.6902
1 1.20929 5.38222 8.2784
1 8.05899 0.875056 1.81017
1 0.878061 8.44445 7.76298
1 8.15073 10.827 1.53376
1 10.86 5.35997 9.01399
1 4.75066 0.40978 1.31823
1 1.07264 4.23379 5.01527
1 7.5799 1.31558 12.6435
1 11.3368 7.24095 4.80093
1 4.91087 10.6249 11.9067
1 11.0738 4.06928 5.48939
1 4.71864 0.875351 11.6195
1 1.453 7.45979 4.94054
1 7.8962 11.3908 11.8437
1 10.7118 10.1262 2.85147
1 2.2591 10.6158 9.91195
1 2.73069 2.3563 3.0827
1 10.2775 3.13932 10.9983
1 2.17513 10.439 2.75836
1 10.5286 10.8033 10.0033
1 10.8202 2.02623 3.0593
1 2.12809 2.87206 10.3061
1 0.109492 1.94748 1.17515
1 11.4614 0.127985 8.01412
1 -0.250845 11.1014 0.968358
1 1.79397 0.479748 7.95528
1 -0.0475817 11.6041 11.6675
1 1.63544 12.5963 5.22108
1 12.7037 1.36867 11.806
1 11.6489 12.5271 4.66168
96
 Atoms. Timestep: 4000
2 12.2853 7.29976 4.35659
2 4.34505 -0.180454 11.7142
2 0.492022 4.48638 4.82611
2 8.05902 11.7522 12.0161
2 0.29478 4.16467 7.97483
2 9.71446 2.48476 0.952348
2 0.285725 8.10221 8.91594
2 4.81181 7.07456e-05 1.52215
2 11.0528 7.5452 7.89907
2 4.47347 11.1932 0.130525
2 2.04169 4.01561 6.16672
2 9.25672 1.00694 11.858
2 1.29927 8.2612 6.66981
2 6.8517 10.1286 0.715656
2 11.72 4.49362 6.00403
2 5.21074 1.81725 12.9062
2 10.5099 6.26311 5.6711
2 6.29691 10.2472 11.906
2 2.16207 6.94384 5.05047
2 6.5598 1.13732 10.977
2 2.30653 5.95541 7.83319
2 7.38073 1.95937 0.633471
2 11.6593 5.76909 8.8843
2 5.21785 10.8669 2.09383
2 10.7543 7.7457 12.9664
2 3.04714 10.4894 3.25599
2 2.03157 3.84043 9.32432
2 9.74073 4.94377 1.05777
2 2.13419 8.82187 9.60016
2 8.15188 10.0986 3.06202
2 10.3766 3.56659 8.1034
2 4.95467 2.5243 2.17366
2 2.69105 4.517 3.33357
2 8.98915 1.38223 9.51903
2 10.3475 8.75287 5.2096
2 3.29835 10.1857 11.2557
2 10.7635 4.97817 3.10152
2 3.46365 2.30318 10.9662
2 0.641811 9.42016 4.70529
2 9.11773 9.55458 12.5858
2 11.3348 6.69402 1.78453
2 1.60508 0.195984 5.81324
2 12.8372 3.04235 13.0405
2 11.0494 12.3624 5.52693
2 -0.11775 4.31446 1.83382
2 0.149944 12.3488 7.37802
2 11.8608 0.282825 12.2282
2 12.2396 0.970314 3.74027
2 11.0945 3.33433 0.897507
2 10.3535 8.05394 10.9537
2 0.569852 9.02982 2.58939
2 1.62197 1.04763 9.02201
2 2.05451 3.40012 1.82254
2 1.76164 11.5522 9.38003
2 10.9307 9.14112 2.77433
2 11.066 1.36787 7.67363
2 1.26801 10.7058 11.8139
2 2.46496 1.68837 3.90379
2 11.27 1.79333 10.2433
2 9.66195 11.1032 4.40834
2 11.2902 10.7098 12.0345
2 9.56998 1.15388 3.46479
2 0.405641 2.12131 10.5551
2 1.22898 12.0343 3.46633
1 11.4987 7.30528 9.62709
1 3.65043 11.6643 2.14656
1 1.85407 4.34379 7.94011
1 8.90472 1.70698 13.2943
1 1.7733 7.54787 8.16008
1 6.89224 10.177 2.18984
1 11.4472 4.68236 7.69101
1 5.77138 1.33479 1.03582
1 2.0519 5.19861 4.76231
1 8.26656 0.287916 10.8288
1 10.0796 7.75401 6.37094
1 4.47067 11.1726 12.1122
1 11.4557 5.52755 4.58944
1 4.81314 1.40493 11.6162
1 0.806397 7.90349 5.28587
1 7.86771 10.2932 12.8294
1 9.64677 9.60774 3.59578
1 2.0432 10.2375 10.3171
1 3.51433 3.02804 2.73201
1 10.1856 2.33298 8.83538
1 1.35394 10.3471 3.57229
1 10.5193 9.22609 12.5366
1 11.314 5.14077 1.54452
1 2.0038 2.28004 10.0777
1 0.805142 3.57902 0.597168
1 11.6757 0.108396 6.89041
1 11.9931 8.03943 2.70242
1 1.63502 12.3441 7.79361
1 12.5247 11.6129 12.4113
1 1.10473 0.658274 4.33882
1 12.2425 1.8735 11.9463
1 10.3847 12.6586 4.01204
96
 Atoms. Timestep: 6000
2 12.1442 8.10056 5.37095
2 5.08967 11.8838 10.7884
2 11.6845 4.41591 5.59196
2 8.39499 10.4628 11.0119
2 12.2841 4.44066 9.5157
2 8.86933 3.07378 0.9791
2 0.0143191 8.45009 9.24319
2 4.99379 0.354933 1.85753
2 10.8053 8.58771 7.71362
2 3.92016 10.9153 12.7403
2 1.77307 4.47323 7.16625
2 8.67187 12.4331 12.6205
2 1.85194 7.16502 7.29791
2 7.69247 8.93783 0.731117
2 10.5609 5.00364 8.57343
2 5.34017 1.43521 11.9062
2 10.1334 6.45844 6.08876
2 6.17733 9.61468 11.9286
2 1.09982 6.07307 4.96595
2 7.68582 1.04326 10.7828
2 1.67208 6.23491 9.40148
2 7.24639 1.70769 1.51901
2 11.4178 6.49992 9.85707
2 5.1452 10.054 2.0093
2 11.435 8.76901 1.11537
2 2.4658 10.3739 2.07864
2 2.42387 3.14587 8.8628
2 9.74501 5.44634 12.0401
2 2.56103 8.95002 9.12325
2 7.66265 9.54662 3.28904
2 9.9316 3.60707 9.91303
2 4.68314 2.64198 2.13384
2 2.70315 4.35845 4.41149
2 9.87898 0.973628 10.1719
2 9.65937 9.2243 5.3625
2 3.12966 10.7253 10.865
2 9.4025 3.40266 6.98699
2 5.16738 1.93196 9.5955
2 1.63795 9.06719 4.87868
2 9.58535 8.8464 11.9973
2 10.4022 7.06082 1.34033
2 0.721777 2.36698 5.35655
2 1.32484 2.19161 12.3986
2 10.9403 2.45089 5.50472
2 11.9737 4.63831 1.17148
2 1.31818 0.750401 6.4939
2 0.551924 0.227865 10.9802
2 11.6989 0.763062 3.95574
2 8.96637 4.57542 0.844359
2 10.7115 9.68367 9.81769
2 12.5217 9.27749 3.0124
2 3.45881 1.5713 8.11514
2 2.13623 3.37255 1.70341
2 2.3318 11.9073 8.60573
2 9.58534 8.30611 3.27784
2 10.9606 1.94388 8.06599
2 0.545759 10.5472 9.37124
2 2.1473 2.48486 3.93956
2 11.7681 2.28084 10.6717
2 9.81984 11.5173 4.41237
2 11.7813 10.3641 11.9532
2 8.97469 0.854419 2.37472
2 2.38522 1.34018 10.2749
2 1.4212 11.5766 3.96583
1 10.6525 7.98542 9.33433
1 3.67996 11.1571 1.49078
1 1.56842 4.80496 8.91615
1 8.59843 1.42621 0.991979
1 1.51238 7.73562 8.86569
1 6.69517 9.54149 1.9128
1 10.7484 5.16551 10.3128
1 5.61485 1.56602 0.945198
1 1.32321 4.17168 5.6721
1 8.75937 12.1729 11.0304
1 10.6929 8.08851 5.87
1 4.60684 10.3435 11.431
1 10.5779 5.005 6.69359
1 6.02009 0.867582 10.3987
1 1.47226 7.61794 5.62732
1 7.73192 9.04128 11.796
1 9.17588 9.84052 3.92623
1 2.09032 10.4253 9.27417
1 3.33998 3.39234 3.02803
1 10.5864 2.37634 9.6296
1 1.64605 10.0637 3.47378
1 11.3142 8.71621 12.3018
1 10.1718 5.55439 0.63012
1 3.65575 2.22432 9.6552
1 0.608048 3.45606 0.806879
1 12.228 1.72908 6.90136
1 11.0237 8.1463 2.48272
1 2.77131 0.450255 7.32885
1 11.6975 11.2286 10.1799
1 0.950806 1.13745 3.94658
1 0.999602 1.73031 10.7702
1 10.1356 0.622309 3.57063
96
 Atoms. Timestep: 8000
2 12.2197 7.58302 3.57564
2 5.34859 0.313789 10.9751
2 10.5934 3.78796 5.27941
2 8.57157 11.7162 11.5181
2 11.8198 4.37804 8.72134
2 8.73156 4.36057 2.30049
2 11.9243 8.69552 8.9212
2 5.4558 11.993 2.23694
2 10.3847 7.98792 7.5075
2 5.27886 10.9689 12.8517
2 0.989801 4.69991 6.56371
2 8.70768 1.76371 0.691141
2 1.18079 7.27327 6.51258
2 7.66217 8.86737 12.2858
2 10.1202 5.44392 7.76472
2 5.18868 1.68288 13.0044
2 9.65338 5.62434 5.68134
2 6.37831 10.0668 10.8359
2 0.408429 5.55328 4.37389
2 7.01597 1.61436 11.5439
2 1.05992 6.55318 8.58014
2 6.51633 2.29721 2.43829
2 9.8079 6.87342 9.64106
2 6.83042 9.36973 1.37202
2 9.76662 9.95884 11.8931
2 4.34276 10.0106 3.2884
2 2.46395 4.77735 9.26288
2 10.4041 5.4337 11.1517
2 2.11285 9.0671 8.99347
2 8.54244 7.98497 2.44993
2 10.2894 3.23886 9.19523
2 3.80468 2.29235 3.10142
2 1.87184 3.40398 3.92236
2 9.30275 1.80336 10.4944
2 9.52335 7.44801 4.53289
2 3.52477 9.98202 10.992
2 8.97815 2.87654 7.1616
2 4.78277 3.61709 10.7232
2 2.63907 8.10856 4.74919
2 9.46315 9.76395 9.80762
2 12.156 8.43105 0.667087
2 0.827326 2.54378 5.69229
2 2.5778 4.25877 12.2685
2 0.568378 12.2177 5.81939
2 11.934 6.02069 0.340739
2 1.65772 2.25552 8.22303
2 1.71759 0.960575 1.64157
2 11.0147 11.5486 3.65904
2 9.2111 7.01813 0.469973
2 10.9706 8.75385 10.689
2 1.60272 9.31576 2.54136
2 4.5769 1.76683 9.60036
2 1.65889 3.26032 1.47206
2 3.09284 12.0495 8.89259
2 10.6402 8.78458 2.3777
2 10.9432 1.5249 7.95632
2 3.21999 10.481 1.3978
2 0.960991 1.28675 3.58976
2 10.1692 11.8359 8.90508
2 8.89968 10.2008 4.19329
2 0.299405 10.7467 0.194343
2 9.2231 1.49869 2.86985
2 0.849787 10.9397 9.9116
2 1.75519 10.755 4.56539
1 10.3549 8.51389 8.98282
1 4.93918 10.5126 1.7642
1 1.45625 5.1076 8.14311
1 8.2226 2.31499 2.24269
1 1.09488 8.01463 8.0637
1 7.92352 7.93328 0.951185
1 10.4073 5.30412 9.37463
1 5.04087 1.5679 2.10068
1 0.597194 4.04774 4.86588
1 8.41614 1.22847 11.7287
1 10.0433 7.27955 6.04972
1 4.94927 10.7983 11.4056
1 9.35688 4.34799 6.50556
1 5.35396 1.87755 11.1919
1 1.43289 6.81376 4.63539
1 8.11489 10.0648 11.2691
1 9.3311 8.76718 3.55216
1 2.51015 10.6045 9.56367
1 2.12637 2.12705 2.63701
1 9.58306 1.82618 8.68571
1 2.7525 9.59874 3.54852
1 11.3741 9.46733 12.2239
1 10.1745 6.15863 12.4751
1 3.28851 4.38382 10.8866
1 0.990002 4.69049 0.695001
1 0.446132 1.7611 7.09684
1 12.1775 8.73916 2.19188
1 3.05383 1.55204 8.623
1 2.28345 11.6119 0.535604
1 12.2747 11.9356 4.27675
1 11.3532 11.0084 9.05526
1 9.2532 11.8837 3.75667
96
 Atoms. Timestep: 10000
2 0.209209 7.27127 3.73931
2 4.72734 11.8919 11.5331
2 11.0341 4.25249 5.97397
2 8.01937 11.3387 12.0257
2 11.9643 4.85963 9.48185
2 9.84802 1.47343 6.61726
2 11.4429 9.02158 7.72109
2 4.94051 12.3964 1.43411
2 8.7887 8.63525 7.10722
2 4.1098 9.69091 12.6587
2 1.36335 4.41326 7.34933
2 8.20645 2.26732 12.3361
2 0.906086 7.60225 6.22355
2 7.33919 8.94367 12.3079
2 9.70161 5.09807 7.94611
2 4.92345 1.925 0.162722
2 8.43608 5.76846 5.75477
2 6.3082 10.1264 10.6653
2 1.70842 5.34253 5.33669
2 6.54803 1.03704 10.6085
2 0.597274 7.09573 8.56227
2 7.14201 2.1069 2.28146
2 10.6665 6.53885 8.84183
2 5.59325 7.32648 0.926876
2 9.78644 9.03659 11.8661
2 4.00089 10.4564 2.76679
2 2.75102 5.5541 9.79691
2 10.4432 6.09018 11.1014
2 2.61456 9.15673 7.73591
2 7.66953 8.6011 2.16824
2 10.767 3.42433 10.6389
2 4.45296 2.39832 3.26206
2 1.51264 3.3803 4.44217
2 8.70491 1.85795 10.4688
2 8.46016 8.73105 4.60124
2 3.94839 9.83129 10.0594
2 9.11278 2.83465 6.00403
2 4.09455 3.26192 11.1979
2 2.73581 7.9884 4.66977
2 9.54846 9.19248 9.80962
2 12.0754 8.97277 0.602393
2 12.1635 2.41363 6.1296
2 2.12255 3.62956 12.1776
2 12.221 0.246243 5.80825
2 11.4276 4.48794 0.472516
2 1.82556 1.34892 7.7151
2 2.27043 1.80839 1.77694
2 11.8504 0.341936 3.34001
2 8.72481 6.53761 0.666117
2 12.5431 8.88892 10.3092
2 1.47528 8.90361 2.72334
2 4.01646 1.50816 9.89097
2 1.94521 4.20162 2.25856
2 3.7938 11.5308 8.14302
2 10.105 8.72949 2.24025
2 10.7237 1.61793 8.5145
2 2.85787 11.3919 0.943884
2 2.03998 1.27438 3.91415
2 11.4737 0.995931 10.2337
2 9.31352 10.8408 2.85915
2 1.12352 11.9725 11.6567
2 9.93604 1.74761 2.57684
2 1.55786 10.7828 8.83068
2 1.41938 10.5515 4.46093
1 10.0175 8.09334 8.38781
1 4.23636 10.7204 1.38161
1 1.41175 5.46181 8.76623
1 8.68767 1.92947 1.45917
1 1.02228 8.5968 7.70369
1 7.33635 7.59678 0.901803
1 10.3994 5.08828 9.61333
1 5.51369 1.89247 1.92748
1 0.778844 3.91374 5.85699
1 7.94286 0.979591 11.5031
1 8.32747 7.72898 5.83939
1 4.89814 10.19 11.2114
1 9.32561 4.62763 6.27335
1 4.9863 1.89245 11.2699
1 1.45699 7.0688 4.84765
1 8.19054 9.81003 11.1982
1 8.70093 9.2464 3.14433
1 3.2714 10.1116 8.70746
1 2.7847 2.76474 3.21956
1 10.2255 1.97566 10.0402
1 2.85244 9.53194 3.79351
1 11.5995 9.1407 11.7833
1 10.0425 5.60112 12.6874
1 3.26631 4.5575 11.1771
1 0.971595 3.91357 1.01898
1 12.2254 1.1279 7.15475
1 11.8271 8.49502 2.11891
1 3.52572 1.02251 8.42292
1 1.96427 0.643752 0.520476
1 1.01164 12.2896 4.39635
1 0.851312 11.9068 10.087
1 10.1709 0.238588 3.24785
96
 Atoms. Timestep: 12000
2 1.07015 7.82153 4.53895
2 5.48994 11.8303 11.636
2 11.4405 5.14002 4.612
2 7.62945 11.6128 11.524
2 11.628 3.98527 8.07468
2 8.3154 3.27026 3.16829
2 11.6007 7.52674 8.2658
2 4.6141 0.451626 2.2535
2 9.68841 9.27884 7.14891
2 4.42105 10.3397 12.9477
2 1.71927 4.05592 6.03666
2 7.87469 1.65867 12.624
2 2.37155 7.69883 7.31626
2 9.60265 9.96885 11.8044
2 9.63388 3.71261 6.25309
2 5.35539 1.99257 0.123166
2 9.30075 6.48713 6.12505
2 6.45208 9.46544 10.5312
2 1.8487 6.03553 4.99536
2 6.63047 1.85915 10.671
2 1.7813 5.6843 7.71963
2 6.13441 2.18115 2.15669
2 8.86053 5.98246 11.0865
2 9.83217 7.3983 0.800745
2 9.44669 11.1636 10.1149
2 4.54418 10.4132 3.26219
2 2.2025 3.77961 8.82559
2 9.28033 4.32206 8.90934
2 1.12213 8.52949 9.49882
2 7.85036 8.1051 2.28652
2 9.8509 1.5187 8.63361
2 3.84615 3.81561 1.80612
2 1.65486 5.15447 3.20132
2 9.90955 1.09651 10.9398
2 8.01861 8.53643 4.67505
2 3.71131 9.21535 10.5875
2 8.97803 4.26671 3.68176
2 3.89219 2.73169 10.6369
2 3.64757 8.97873 5.47982
2 9.26336 9.06099 9.87091
2 11.8077 8.91947 1.87893
2 0.843687 2.54127 7.15866
2 2.17576 4.4689 11.6047
2 0.580223 0.640046 5.94247
2 11.2673 5.00048 10.7688
2 2.36198 0.125244 7.86773
2 1.64461 2.88928 1.60937
2 10.1872 1.37146 4.11967
2 8.04905 5.73404 12.2999
2 0.995884 0.283932 0.333657
2 1.94259 10.0382 3.4504
2 4.35726 0.643333 9.8418
2 1.51087 5.37126 0.869467
2 2.42051 10.8596 9.61514
2 10.8487 8.51724 3.76559
2 11.9958 11.8817 8.48537
2 2.66723 11.6698 1.61685
2 0.818441 2.9626 4.58119
2 12.0758 11.7352 10.7895
2 8.57652 10.4196 3.99085
2 3.54449 1.61436 1.06312
2 8.17666 0.591099 2.96491
2 1.77407 9.75225 11.8334
2 0.987201 0.566894 3.4303
1 10.3193 8.67642 8.68237
1 4.22633 10.8846 1.80689
1 1.37754 4.14509 7.59506
1 7.78693 2.23279 1.8136
1 1.35726 7.28638 8.59136
1 8.18501 6.59487 1.12921
1 10.0221 3.26115 7.92712
1 4.71245 2.25192 1.76279
1 0.919119 4.80285 4.41062
1 8.14825 1.06601 11.0402
1 8.84138 8.15811 5.92807
1 5.0028 9.85949 11.5106
1 9.89797 4.92217 5.40813
1 5.05861 1.56012 11.2117
1 2.17024 7.5642 5.80604
1 8.0723 10.2647 10.7257
1 9.07246 9.12037 3.10752
1 2.17787 9.47321 10.3618
1 2.23747 4.27765 1.89777
1 10.8213 12.1338 9.66124
1 3.53981 10.1537 4.51697
1 10.0558 9.06749 0.882097
1 9.78911 5.06613 10.3331
1 2.80543 3.90907 10.3873
1 0.601539 5.19334 11.8192
1 0.982271 0.924103 7.39034
1 0.483728 8.7681 3.13193
1 3.49144 11.7649 8.90348
1 1.71888 1.11827 1.65793
1 11.8909 1.57769 4.54045
1 0.554831 10.8364 12.4248
1 9.06608 11.9961 4.27765
96
 Atoms. Timestep: 14000
2 11.7495 7.58924 5.0246
2 5.40356 12.1099 11.4707
2 11.0241 3.73783 5.0105
2 8.99698 1.22414 11.1099
2 11.8096 3.85516 6.96803
2 8.00834 4.55094 2.36303
2 10.2664 8.11208 9.35868
2 4.56241 0.962549 1.49285
2 9.94785 8.60661 7.40932
2 5.13695 10.5122 1.3187
2 1.80671 2.7781 6.4543
2 7.71823 2.07706 0.639058
2 0.397104 7.19141 7.90175
2 10.9253 10.9058 11.6545
2 9.30989 3.93381 6.16019
2 4.3076 3.06527 12.0469
2 10.0455 6.15911 5.48314
2 7.03818 9.48742 12.0339
2 0.936901 5.85999 5.43646
2 6.30979 1.94984 10.5505
2 11.6792 6.70224 11.1104
2 5.78292 2.74032 2.20244
2 8.66597 5.60003 11.7516
2 9.665 8.75418 0.783903
2 10.3087 11.6317 8.96867
2 3.74433 10.4483 3.75205
2 1.2521 2.66939 9.48952
2 9.59829 4.27778 9.16787
2 1.45437 8.06744 10.1201
2 8.1578 8.4377 2.5215
2 11.0347 2.07985 7.72714
2 3.08595 3.22738 2.41609
2 1.16243 4.66132 3.76968
2 8.44629 3.29681 10.5753
2 8.59439 8.74719 5.2624
2 4.0307 9.76324 11.7996
2 9.03471 4.69411 3.31483
2 3.68974 1.56467 10.4837
2 1.54579 9.11107 5.94109
2 9.02283 10.2819 10.1711
2 12.1213 8.9091 1.68827
2 3.05708 1.26224 7.56849
2 1.6833 4.05412 11.4236
2 2.00217 0.530336 5.18632
2 10.9425 4.75856 11.666
2 3.00849 10.8947 7.06188
2 1.41371 2.43242 1.39623
2 10.8723 0.401805 4.19487
2 8.54977 7.02236 12.1654
2 11.6511 11.7193 0.931947
2 0.909017 9.60948 3.6548
2 4.87607 11.3345 9.02736
2 0.681146 5.13219 1.00006
2 4.16455 8.75874 9.48993
2 10.4833 9.28989 3.42608
2 2.94204 10.757 9.32861
2 2.74322 11.7641 1.60882
2 0.524628 2.28814 4.92504
2 0.954229 11.7379 8.93244
2 8.51001 11.215 3.73354
2 1.53868 0.917042 11.6828
2 8.49818 1.98551 2.55828
2 2.18932 9.6494 11.0254
2 1.10242 0.85686 2.95919
1 9.11372 9.1247 9.02512
1 3.95848 11.167 2.28907
1 2.31168 2.4093 8.13744
1 7.38914 3.18553 2.02708
1 11.9446 7.51058 9.79473
1 8.18667 8.48903 0.473064
1 9.98203 3.85562 7.60787
1 4.38226 2.61987 1.37361
1 1.06932 4.07427 5.46756
1 7.7716 2.14555 11.5537
1 10.0629 7.63562 6.09055
1 5.41631 10.6182 12.1849
1 9.62904 4.66045 4.70473
1 5.10471 0.905979 9.87739
1 1.17262 7.42361 6.39839
1 9.84722 11.4941 10.5831
1 8.6989 9.57151 3.89328
1 3.11183 8.35588 10.9105
1 1.61594 4.23616 2.13676
1 11.5466 0.587191 8.06443
1 2.24647 10.0336 4.74095
1 11.0964 10.0952 0.515194
1 9.53617 4.57752 10.7559
1 1.8631 2.46959 11.0413
1 0.448739 5.30974 11.7635
1 3.15961 12.2238 6.21439
1 11.9436 8.16262 3.26594
1 4.00905 10.1032 8.37814
1 1.36491 0.859242 1.10771
1 0.598676 0.819446 4.472
1 1.88531 11.4513 10.3603
1 9.07886 0.873795 3.64223
96
 Atoms. Timestep: 16000
2 0.761559 8.22223 6.02865
2 6.04329 10.6023 12.5585
2 11.3763 5.62925 4.04079
2 9.55139 3.1131 10.5086
2 10.7521 4.29088 6.6704
2 9.17883 3.85449 2.05736
2 11.6445 6.85097 9.35193
2 4.17025 1.35299 0.622178
2 9.75056 8.22409 7.31197
2 4.60685 10.7126 1.71851
2 1.962 3.81449 5.89303
2 8.51201 2.04671 0.825986
2 2.27984 7.07516 7.58072
2 8.93503 10.8189 11.3664
2 8.70043 2.16999 5.80646
2 4.66341 2.85462 11.1058
2 10.1331 7.53408 4.99747
2 6.06941 8.49145 2.37133
2 1.10646 5.83015 6.19121
2 6.93762 1.09592 10.9864
2 1.84971 5.23069 9.75686
2 6.28507 2.99358 1.3085
2 8.34052 6.22584 8.82454
2 8.10413 9.7424 1.40389
2 9.04677 10.2091 8.72766
2 4.0662 0.979272 3.15405
2 3.7446 2.87679 8.18308
2 8.68498 3.61585 7.76077
2 2.93321 7.62346 10.1474
2 8.37631 9.83865 4.53466
2 10.9885 2.4277 8.37045
2 3.27869 3.59552 1.11637
2 1.05531 4.28361 3.36279
2 7.57158 3.67853 10.6135
2 10.1795 9.9894 6.22183
2 4.12111 8.43156 12.6838
2 9.69236 5.16793 2.87825
2 4.33551 1.06634 10.1477
2 2.64612 7.98616 4.51575
2 9.26485 8.2204 10.0116
2 10.4365 9.24856 1.31924
2 4.11628 2.0227 5.78496
2 2.78871 3.27511 10.5708
2 1.77211 1.42809 4.93093
2 0.555568 2.87233 10.0125
2 2.86124 11.0612 3.82758
2 12.1236 2.33636 1.88585
2 6.32967 1.47721 5.75764
2 8.49827 7.43854 3.09584
2 10.3473 11.7167 1.77733
2 1.07666 9.53579 2.60148
2 7.1337 9.71902 10.663
2 0.542803 4.27917 12.6348
2 4.27558 9.74867 10.3693
2 10.3734 9.83155 4.12611
2 2.52159 11.1575 10.0912
2 1.84142 11.972 1.8532
2 11.2285 2.89863 5.15959
2 11.8957 0.736077 10.1288
2 10.6561 12.0302 5.81502
2 11.7101 11.6003 12.0867
2 6.88176 1.71397 3.67376
2 2.13306 9.57569 11.5233
2 11.6226 0.791985 3.48798
1 9.97938 7.3802 8.6912
1 3.60831 12.1002 1.66988
1 3.43555 3.29721 6.73917
1 7.67488 2.69262 2.1764
1 1.79947 6.84239 9.21472
1 7.4069 9.02964 3.12099
1 9.90431 2.84252 6.95097
1 4.87551 2.72701 0.495825
1 0.610703 4.4893 5.27792
1 8.13086 2.30704 11.5371
1 10.8354 8.26836 6.33109
1 4.51062 9.07571 2.17577
1 9.80818 6.62685 3.74186
1 6.10726 11.1663 11.0269
1 2.05114 7.193 5.92913
1 8.61513 9.70791 10.1386
1 9.3629 10.7574 5.11437
1 3.514 8.59893 11.2621
1 1.54971 3.58615 1.70746
1 10.8436 2.09217 9.93004
1 2.76565 9.32361 3.51932
1 9.15487 10.6752 0.698613
1 7.69532 4.6206 8.87973
1 4.00162 2.73272 9.61707
1 1.33021 3.97546 11.0285
1 3.40621 0.83229 4.84088
1 11.1921 9.20103 2.92126
1 4.23487 11.0207 9.40647
1 11.9628 0.665597 1.57355
1 11.6088 1.2927 5.02653
1 1.24885 11.054 11.0781
1 7.70829 0.846041 5.14711
96
 Atoms. Timestep: 18000
2 11.6175 7.44935 5.99019
2 6.59584 9.83072 12.3305
2 9.86428 5.21358 5.09566
2 9.74641 1.1501 11.2005
2 10.5503 3.62351 6.53578
2 6.37467 5.09764 3.18478
2 12.0319 7.14882 8.58766
2 4.58831 1.99396 12.4893
2 9.8633 7.2411 7.81743
2 4.85959 10.6089 1.27075
2 0.952718 3.4651 6.38348
2 8.30543 3.91385 11.137
2 2.19868 6.28301 7.81691
2 11.7514 10.3595 11.885
2 8.52452 2.21808 6.381
2 3.6583 2.56531 10.602
2 8.73307 7.3318 4.7927
2 6.93938 8.87637 2.42776
2 1.41521 5.48972 5.5306
2 7.70331 1.17487 11.7252
2 1.98503 5.08752 9.98444
2 5.09271 3.58952 1.46925
2 9.04277 6.35955 10.0916
2 9.13099 9.84661 1.55347
2 10.6858 10.5696 8.79761
2 4.78759 1.15388 3.12097
2 3.34968 2.17545 7.54756
2 8.84618 4.22753 8.44291
2 3.57675 7.64846 10.0753
2 7.86356 9.50867 4.10367
2 10.1724 2.22412 8.49918
2 2.93843 3.86037 0.768477
2 1.12703 4.50255 3.74016
2 6.37235 4.90272 9.32001
2 9.09781 9.08013 6.15128
2 4.67617 8.5757 12.3983
2 7.28243 5.60196 4.03933
2 3.19492 11.5847 9.02729
2 2.47442 8.22258 5.88074
2 10.1291 8.08962 9.77529
2 11.2878 9.88465 2.68325
2 3.02481 2.73324 4.97943
2 1.69422 2.42857 9.65224
2 1.65679 12.0658 4.09099
2 10.2641 2.60146 12.6201
2 3.44946 10.8461 4.62426
2 0.620337 2.77729 2.14055
2 8.07476 11.8199 5.17142
2 9.03351 6.78594 2.85943
2 10.1587 11.8762 1.02277
2 1.64695 9.90497 5.14674
2 8.66136 10.216 10.8572
2 10.9081 4.80373 9.61851
2 4.42919 9.74451 9.9983
2 10.8041 10.4331 5.42375
2 4.03939 9.94379 7.09133
2 2.83595 2.33437 2.95605
2 11.286 3.11661 4.32674
2 12.2194 11.7302 10.1114
2 10.0304 0.750738 5.51818
2 0.68759 1.05163 12.1524
2 6.82266 2.46173 3.27007
2 2.81076 10.5139 11.3321
2 10.709 1.20123 2.92549
1 10.4099 6.43902 9.17133
1 4.78396 0.672843 1.44032
1 2.5066 2.87517 6.46168
1 6.28047 3.74313 2.40929
1 2.17417 6.77305 9.202
1 8.61369 8.31181 2.74283
1 9.44047 3.1102 7.42302
1 4.20644 3.65658 11.867
1 11.483 4.73712 5.06486
1 8.82556 2.37406 11.7065
1 9.7486 7.4338 6.11071
1 5.64786 9.29584 1.54421
1 8.7589 5.74206 4.06801
1 7.17494 11.099 11.2168
1 1.5175 6.81518 6.28296
1 9.51403 9.45407 9.60482
1 9.11715 10.465 5.30458
1 3.72897 8.84341 11.1629
1 2.17512 3.76393 2.21478
1 10.2787 0.739536 9.59791
1 3.19608 9.84741 5.79719
1 10.561 10.0175 1.0584
1 7.93071 4.82521 9.7807
1 2.98664 1.57632 9.18301
1 0.71359 3.73656 9.93762
1 3.56523 1.303 4.26424
1 11.8033 10.6298 4.13396
1 4.25528 10.3171 8.60889
1 11.3864 1.53494 1.34383
1 11.1406 1.46095 4.62866
1 1.49751 11.4626 11.5307
1 7.90529 1.99073 4.79053
96
 Atoms. Timestep: 20000
2 12.3076 8.02866 4.35917
2 6.24054 11.15 12.1798
2 11.0272 4.74261 5.33603
2 9.03375 12.0429 9.49805
2 11.7736 3.16292 6.58279
2 6.94641 4.58952 4.47478
2 11.5442 6.29273 9.19136
2 1.75198 9.62377 1.67762
2 10.3706 6.70709 7.59086
2 4.86039 9.52444 1.32329
2 1.74454 4.49395 7.05964
2 9.20062 2.65409 10.2601
2 1.17488 8.09163 7.35917
2 11.2267 10.2722 2.47756
2 8.95472 1.313 5.83563
2 5.07817 2.9852 11.1211
2 10.0384 7.4623 4.24585
2 7.04339 9.59912 1.09006
2 1.16576 6.17019 5.79207
2 8.31277 0.828453 0.659965
2 1.86027 5.63211 10.0111
2 5.44723 4.72222 1.53976
2 9.41663 5.1674 9.1484
2 8.93097 10.9544 2.30554
2 10.3327 10.2512 9.19114
2 3.89899 9.62911 4.00258
2 3.60053 2.31582 8.49549
2 9.34317 3.38327 7.41997
2 2.42157 7.74157 9.86659
2 8.04528 9.18132 4.09953
2 10.4006 0.680971 7.10352
2 2.96161 3.81843 12.1741
2 1.51735 3.91479 4.36855
2 7.01976 3.90681 9.59349
2 9.99182 9.66294 4.58264
2 4.31399 9.14781 11.9672
2 8.36124 5.11819 4.78381
2 4.26158 0.64698 9.34026
2 2.68923 8.52674 5.33987
2 9.23952 8.34388 10.1931
2 10.9989 11.8428 3.96984
2 3.41333 2.25799 5.77249
2 2.5258 2.61538 10.496
2 1.76355 0.704941 3.9648
2 10.2986 1.18121 11.947
2 3.66491 11.7628 5.22432
2 1.13534 2.16212 1.66182
2 8.21501 11.4667 5.00958
2 9.49074 8.88555 2.37882
2 10.991 0.780945 1.55912
2 1.7011 10.9542 5.07272
2 8.43323 10.2781 11.6132
2 0.475462 3.27592 11.7285
2 2.81575 10.1866 9.38909
2 8.92545 10.3919 7.22427
2 3.1584 10.6296 7.16889
2 3.00924 2.06015 2.91419
2 8.4151 3.66872 1.96335
2 11.3877 9.95267 11.8726
2 9.18624 1.29549 2.96844
2 12.1328 11.673 12.7537
2 6.89791 2.44751 3.71991
2 1.68123 9.59561 11.8458
2 10.7706 2.75855 1.07923
1 10.0054 6.89929 9.39035
1 3.44544 9.7937 2.3326
1 2.98893 3.12127 7.11478
1 6.72531 3.89805 2.85502
1 1.13663 7.0211 8.99992
1 7.96148 9.53707 2.41626
1 10.2321 2.07324 6.5166
1 4.51408 3.97802 12.4561
1 0.487448 4.72814 5.85085
1 9.20399 1.14551 10.8237
1 10.8843 8.72799 3.30346
1 5.87593 9.62429 12.5885
1 9.8098 5.85688 5.11907
1 7.64667 11.9407 12.0886
1 1.35813 7.73491 5.81142
1 10.0219 9.68833 10.7901
1 8.47623 9.97619 5.55098
1 3.01164 9.20531 10.8733
1 1.5879 3.29798 2.78148
1 9.68752 11.5139 8.16405
1 3.29597 10.0714 5.47314
1 10.2723 11.6263 2.63872
1 8.52505 3.8065 8.98573
1 4.09999 2.14934 10.1732
1 1.65681 4.36958 11.0529
1 3.45255 1.26699 4.39032
1 0.524232 11.9004 4.65382
1 3.38437 11.3722 8.43006
1 12.0516 1.76488 12.8028
1 9.1858 2.43253 1.50988
1 0.639625 10.2707 0.514055
1 8.14149 1.17671 4.00798
96
 Atoms. Timestep: 22000
2 10.7173 7.95601 4.94575
2 5.45182 10.8692 0.629105
2 0.877722 5.08137 5.1312
2 8.90417 0.834597 9.12488
2 11.442 1.29849 5.59614
2 8.53835 4.60484 5.35896
2 11.1195 5.79793 9.46919
2 11.0068 9.93136 1.01069
2 10.6054 6.93095 7.29696
2 3.89811 9.35526 2.49382
2 3.19862 4.51301 6.31169
2 7.93334 2.7649 9.14073
2 1.28737 7.12755 8.28978
2 10.5287 9.92824 3.51319
2 8.67269 0.704348 4.6338
2 5.43276 3.61637 11.3405
2 10.6343 4.75984 6.00396
2 5.92131 8.26283 1.63964
2 2.37774 7.09265 5.94479
2 7.34651 1.24015 11.8775
2 1.61218 4.77954 10.5229
2 6.54111 4.57991 2.41857
2 9.32511 5.27269 7.857
2 7.40632 0.783941 1.70474
2 8.26308 9.77025 9.01369
2 2.95169 10.1054 4.73648
2 5.22399 3.02109 8.32688
2 9.06406 2.65682 5.77526
2 1.50248 7.6842 10.7143
2 6.30496 8.60056 4.55316
2 9.4686 12.219 7.05891
2 4.72383 5.33395 1.48343
2 2.90014 5.29121 3.40195
2 8.57163 2.7237 7.74106
2 8.35585 9.95616 4.26012
2 3.74912 8.52809 12.0682
2 9.40365 6.10274 5.22486
2 4.08672 1.1299 9.92326
2 3.20724 9.20062 6.9468
2 8.78443 7.60578 9.58082
2 0.928263 11.5752 3.22832
2 4.60516 2.45801 5.46747
2 3.61161 2.54524 11.1942
2 2.15446 1.43039 5.102
2 10.1807 1.60498 11.59
2 4.04835 11.7946 4.91131
2 2.5389 3.98757 1.03774
2 6.63865 11.7454 3.97901
2 8.33588 7.96553 3.1911
2 0.438703 11.9218 0.939792
2 1.97343 11.3561 6.09099
2 7.31902 10.1084 11.3606
2 1.15493 2.50111 11.2482
2 2.88731 10.4036 10.1899
2 8.0306 10.6711 6.25733
2 3.72542 11.7487 7.37206
2 4.22423 3.09657 3.28897
2 9.46825 4.08324 3.11152
2 9.91271 8.89945 11.1608
2 9.14704 1.41617 2.48381
2 11.3487 11.6257 11.2078
2 7.15772 3.0737 3.59546
2 0.955669 9.38538 11.5652
2 11.2621 2.88564 0.920203
1 9.7325 6.46815 8.78641
1 2.39531 9.47996 3.2132
1 4.60031 3.8041 6.71208
1 7.95047 4.75401 3.60205
1 1.06894 6.3064 9.6923
1 6.6464 7.87068 2.96559
1 9.70739 1.34933 5.69073
1 5.87789 4.37545 0.81434
1 2.54991 5.34964 5.09783
1 8.42061 1.85179 10.6771
1 9.45069 8.70739 4.18429
1 4.75434 9.27989 0.994449
1 10.9323 6.32177 5.78999
1 6.96334 11.456 12.537
1 2.11945 7.92515 7.31621
1 8.20775 9.0372 10.5318
1 6.77549 10.2889 4.9379
1 2.60613 8.9111 10.9381
1 3.52884 4.43732 2.24801
1 8.52127 11.2712 7.97962
1 3.65303 10.5284 6.08997
1 11.8385 10.6197 2.25879
1 8.71348 3.92051 6.79089
1 4.75283 2.76798 10.0784
1 2.49726 3.65835 11.4877
1 3.69995 1.67692 4.21086
1 0.984674 0.382896 4.96403
1 3.68229 11.4473 8.98298
1 11.757 1.54545 12.0431
1 10.2743 2.58856 2.43439
1 11.0748 9.8712 11.2066
1 7.67308 1.2212 3.51219
96
 Atoms. Timestep: 24000
2 9.80668 7.09815 4.55602
2 6.06471 10.0179 1.1332