96
 Atoms. Timestep: 0
2 0 7.95642 4.74695
2 4.63304 0 11.358
2 0 4.63304 4.74695
2 7.95642 0 11.358
2 0 4.63304 8.47514
2 7.95642 0 1.8641
2 0 7.95642 8.47514
2 4.63304 0 1.8641
2 10.7421 8.43088 6.61105
2 4.15858 10.7421 0
2 1.84736 4.15858 6.61105
2 8.43088 1.84736 0
2 1.84736 8.43088 6.61105
2 8.43088 10.7421 0
2 10.7421 4.15858 6.61105
2 4.15858 1.84736 0
2 10.5201 6.29473 5.04003
2 6.29473 10.5201 11.6511
2 2.06934 6.29473 5.04003
2 6.29473 2.06934 11.6511
2 2.06934 6.29473 8.18207
2 6.29473 2.06934 1.57102
2 10.5201 6.29473 8.18207
2 6.29473 10.5201 1.57102
2 10.1594 8.65935 9.20274
2 3.93011 10.1594 2.59169
2 2.43004 3.93011 9.20274
2 8.65935 2.43004 2.59169
2 2.43004 8.65935 9.20274
2 8.65935 10.1594 2.59169
2 10.1594 3.93011 9.20274
2 3.93011 2.43004 2.59169
2 2.43004 3.93011 4.01936
2 8.65935 2.43004 10.6304
2 10.1594 8.65935 4.01936
2 3.93011 10.1594 10.6304
2 10.1594 3.93011 4.01936
2 3.93011 2.43004 10.6304
2 2.43004 8.65935 4.01936
2 8.65935 10.1594 10.6304
2 0 10.703 0
2 1.88643 0 6.61105
2 0 1.88643 0
2 10.703 0 6.61105
2 0 0 1.872
2 0 0 8.48305
2 0 0 11.3501
2 0 0 4.73905
2 11.2706 2.31295 2.18973
2 10.2765 11.2706 8.80078
2 1.31887 10.2765 2.18973
2 2.31295 1.31887 8.80078
2 1.31887 2.31295 2.18973
2 2.31295 11.2706 8.80078
2 11.2706 10.2765 2.18973
2 10.2765 1.31887 8.80078
2 1.31887 10.2765 11.0324
2 2.31295 1.31887 4.42131
2 11.2706 2.31295 11.0324
2 10.2765 11.2706 4.42131
2 11.2706 10.2765 11.0324
2 10.2765 1.31887 4.42131
2 1.31887 2.31295 11.0324
2 2.31295 11.2706 4.42131
1 11.0086 7.83654 8.10972
1 4.75292 11.0086 1.49867
1 1.5809 4.75292 8.10972
1 7.83654 1.5809 1.49867
1 1.5809 7.83654 8.10972
1 7.83654 11.0086 1.49867
1 11.0086 4.75292 8.10972
1 4.75292 1.5809 1.49867
1 1.5809 4.75292 5.11238
1 7.83654 1.5809 11.7234
1 11.0086 7.83654 5.11238
1 4.75292 11.0086 11.7234
1 11.0086 4.75292 5.11238
1 4.75292 1.5809 11.7234
1 1.5809 7.83654 5.11238
1 7.83654 11.0086 11.7234
1 10.1088 10.1088 3.30552
1 2.48067 10.1088 9.91657
1 2.48067 2.48067 3.30552
1 10.1088 2.48067 9.91657
1 2.48067 10.1088 3.30552
1 10.1088 10.1088 9.91657
1 10.1088 2.48067 3.30552
1 2.48067 2.48067 9.91657
1 0 1.60471 1.57853
1 10.9848 0 8.18958
1 0 10.9848 1.57853
1 1.60471 0 8.18958
1 0 10.9848 11.6436
1 1.60471 0 5.03252
1 0 1.60471 11.6436
1 10.9848 0 5.03252
96
 Atoms. Timestep: 2000
2 13.1053 7.79652 3.75464
2 5.38288 0.110688 11.4903
2 12.4881 3.97049 4.74294
2 8.05025 12.368 11.5414
2 -0.00294007 5.38743 8.58388
2 7.46986 12.0852 1.62297
2 12.4693 8.8953 8.09085
2 4.21246 -0.473204 1.92896
2 11.0457 5.4587 3.84356
2 4.65049 10.8525 13.2557
2 0.88434 5.07818 6.35683
2 8.05732 1.01007 13.6767
2 1.01948 8.53403 6.7477
2 8.91796 10.8817 0.525058
2 10.8088 4.1538 6.53172
2 4.45287 2.23172 0.0263471
2 0.455585 5.67435 3.18321
2 6.6825 10.8108 12.2327
2 1.4456 6.64082 4.7553
2 6.3025 1.88599 12.009
2 1.831 7.23047 8.50602
2 6.05918 1.36335 1.83757
2 11.1316 6.34594 7.73112
2 6.44711 10.2657 1.94469
2 10.0361 8.38241 10.0834
2 3.37838 10.2309 1.71837
2 2.00404 4.61986 10.0534
2 8.90873 1.34847 2.27406
2 2.2519 9.8073 8.60834
2 9.23824 10.5148 3.26291
2 10.6548 3.83737 9.75838
2 3.51531 1.99359 2.91056
2 2.06754 4.36417 3.89756
2 8.84443 1.67518 10.6273
2 11.1049 8.19186 3.688
2 4.41867 10.5235 10.2376
2 10.1668 2.80623 4.03405
2 3.19213 2.51669 10.9854
2 2.13943 9.2523 3.9357
2 8.97279 10.3855 11.2866
2 12.5034 10.8345 13.2005
2 1.18861 -0.176857 6.85267
2 12.6439 1.96596 -0.00595038
2 9.90885 0.440838 4.43569
2 0.31726 12.6934 1.64191
2 12.8133 -0.0612866 8.713
2 12.6527 0.0121289 11.3542
2 12.245 0.179455 4.92325
2 11.8547 1.57222 2.18386
2 10.4566 11.139 9.05579
2 1.09724 10.64 1.85431
2 1.04508 2.14177 9.04354
2 1.5983 2.08301 2.07712
2 2.52389 12.631 9.19418
2 11.7905 10.3177 2.16842
2 10.4959 0.550483 9.4463
2 1.66185 11.5053 10.8245
2 1.57376 1.5083 4.36921
2 11.2403 2.34225 11.2205
2 11.4283 11.0348 4.66625
2 12.1496 10.2022 10.954
2 10.614 12.2464 7.18919
2 0.381909 2.70137 11.552
2 1.26525 11.7985 3.95881
1 10.7793 7.70657 8.6804
1 4.84653 11.0221 1.48958
1 1.52243 5.43903 8.20278
1 7.6076 0.807852 1.51318
1 1.24472 8.96045 8.10298
1 8.27493 10.6542 1.99521
1 11.1232 4.7119 8.13121
1 4.52342 1.26631 1.58843
1 0.935031 5.16844 4.75349
1 7.78655 0.970446 11.7335
1 11.8481 6.63581 2.94698
1 5.23736 11.3341 11.3909
1 10.7534 3.97879 5.05762
1 4.77679 1.75581 11.7843
1 1.04108 8.2722 5.00074
1 8.20624 11.1311 12.576
1 10.6998 10.0801 3.48306
1 2.84784 10.8998 9.80389
1 2.27656 2.92387 3.29209
1 10.6136 2.16646 9.83605
1 2.14074 10.5641 2.97892
1 10.3546 10.1144 10.2966
1 10.3656 1.42299 2.92696
1 1.52433 3.04906 10.3508
1 0.317216 1.20764 1.38598
1 11.3385 12.4921 8.59512
1 -0.220032 10.871 1.18388
1 1.2297 0.651733 8.16041
1 -0.217124 11.433 11.5657
1 1.04304 0.0827261 4.95967
1 12.2919 1.54522 12.161
1 10.8319 12.4386 5.59942
96
 Atoms. Timestep: 4000
2 12.2196 7.86036 4.94935
2 4.62747 12.4568 11.5669
2 11.6833 5.45417 5.05632
2 8.08513 12.6826 11.8786
2 0.00348915 4.87375 9.76626
2 7.66829 12.5943 1.96484
2 4.28712 5.99147 8.94189
2 4.75334 12.1726 1.79862
2 10.1647 7.1257 4.78759
2 4.19107 10.3003 12.9303
2 1.08889 4.69786 6.77535
2 7.78544 1.94907 0.263073
2 2.43819 7.1814 6.44764
2 8.31216 10.8576 13.0945
2 10.0126 5.51029 6.18463
2 4.28966 1.22691 0.288316
2 11.6602 7.87954 2.34418
2 6.04565 10.6055 11.2056
2 1.46465 6.19284 4.80114
2 6.45803 2.20539 12.0126
2 1.63393 5.60977 8.75424
2 6.01087 1.43663 2.06542
2 11.6041 5.8723 8.52766
2 6.24985 10.4722 1.67272
2 0.944606 7.08261 10.2887
2 3.39777 9.90952 1.76198
2 2.12664 3.01169 9.31509
2 9.23425 1.66916 2.42563
2 2.70706 8.16462 9.36545
2 8.993 10.6905 2.25567
2 10.0643 3.61418 8.54625
2 3.34898 2.1816 2.22807
2 0.562779 3.7266 3.98914
2 8.21003 2.3456 10.7726
2 11.309 9.85607 3.09432
2 3.51845 10.3493 10.3217
2 9.85979 4.11186 4.1296
2 3.66054 2.20084 11.1965
2 1.37619 8.94578 4.0037
2 8.91007 10.0045 11.2213
2 0.579977 11.7984 13.4164
2 1.29375 12.151 6.5155
2 12.8147 2.56414 13.0314
2 11.1828 2.04473 4.32415
2 12.4505 1.14447 1.23513
2 12.6533 11.9784 8.75031
2 12.5639 0.178198 11.3392
2 -0.112168 0.95453 5.06867
2 11.6279 3.50949 2.40037
2 10.7727 8.54141 10.3293
2 1.42246 11.2553 1.9483
2 2.05436 0.339383 9.14306
2 1.0109 3.26215 1.93247
2 1.98 10.6472 8.72373
2 11.8733 11.9012 1.59725
2 10.6916 1.11979 9.32515
2 1.21016 10.2856 11.2809
2 1.56298 1.23502 3.59974
2 10.7111 2.13773 11.1024
2 10.9268 11.6841 4.29649
2 11.6973 10.7251 11.6602
2 11.1559 0.0153837 6.69358
2 1.23201 1.62655 10.8967
2 2.04019 11.3883 4.65506
1 12.4424 6.42696 9.99247
1 4.70142 10.5862 1.25978
1 0.843031 3.8668 8.69664
1 7.69206 1.22746 1.65699
1 2.97392 6.70725 8.20043
1 7.7282 10.9355 1.21267
1 10.5399 4.95496 7.67827
1 4.48846 1.15065 1.96954
1 0.397847 4.80576 5.21862
1 7.90342 1.40081 12.1031
1 10.8176 8.31956 3.84557
1 4.41523 10.7723 11.4646
1 10.1381 5.58023 4.66947
1 4.86356 1.36575 12.248
1 1.01829 8.00698 5.40143
1 7.55076 11.0175 11.6311
1 10.595 11.2213 2.64225
1 2.055 9.68881 9.99617
1 1.96491 2.64683 3.13936
1 9.79351 2.52084 9.84329
1 2.19491 10.4115 3.14741
1 10.4802 10.1689 10.7223
1 10.3457 2.97073 3.24689
1 2.55998 1.67166 10.0462
1 12.6233 2.70847 0.933635
1 11.3422 0.0190041 8.33868
1 0.394288 12.6037 1.16693
1 1.38295 12.0389 8.11314
1 0.280754 11.3956 11.5167
1 1.39296 0.380738 4.94496
1 12.6258 1.71407 11.6403
1 10.8951 0.517368 5.06819
96
 Atoms. Timestep: 6000
2 12.356 7.27773 3.6341
2 4.65563 12.7375 10.9778
2 -0.256 4.96354 5.342
2 7.6615 12.1205 11.7161
2 0.639175 6.13284 8.37917
2 8.46058 12.0552 0.9577
2 1.11751 10.9989 5.8848
2 5.4284 12.6886 1.47832
2 10.1107 5.53881 4.64929
2 4.32877 11.4809 13.3276
2 1.73581 4.3244 6.87096
2 8.41512 1.19207 12.953
2 1.6891 8.75461 5.61712
2 7.7326 9.88036 -0.132428
2 10.4532 4.30531 7.07896
2 4.25928 1.55768 12.9243
2 11.0787 6.46858 2.35266
2 5.62693 9.90097 12.0287
2 1.79881 6.28858 4.89994
2 6.42551 1.60252 11.525
2 3.36745 9.70508 7.86613
2 6.82391 1.50751 1.51942
2 11.2026 6.39446 7.7657
2 6.349 10.2405 1.98685
2 11.7986 7.40442 9.63313
2 3.46181 10.5039 2.02978
2 1.88493 4.17036 9.82116
2 9.20479 1.71059 2.29122
2 0.32066 8.67668 7.68427
2 8.80139 10.6084 3.08844
2 10.4563 4.71973 9.76734
2 3.86636 1.96132 2.34831
2 1.98825 3.49389 4.31571
2 9.30204 2.0181 10.306
2 10.5573 8.71833 4.59933
2 3.18887 10.0562 10.88
2 10.431 3.20961 4.43022
2 3.70256 2.60974 11.0724
2 1.87293 8.59716 3.26275
2 8.20432 8.81608 11.4496
2 11.943 11.3393 0.0994746
2 2.1761 12.5142 6.96497
2 0.328582 1.47442 13.2276
2 10.5171 0.340026 4.33306
2 -0.0347539 12.817 1.18413
2 0.907848 2.96224 7.98634
2 11.6303 0.226498 11.5194
2 12.6046 0.206018 5.46761
2 11.456 1.58657 2.28774
2 10.3241 7.61585 10.1494
2 0.72973 10.7587 2.43965
2 2.47784 1.28259 8.98409
2 1.07837 1.94279 2.66207
2 1.7628 11.2093 9.27962
2 11.5982 10.6581 3.37011
2 0.271386 0.341801 9.01348
2 0.146677 11.3994 11.2838
2 2.20227 1.01916 4.02389
2 11.9855 1.88595 10.2509
2 10.2666 11.1703 5.54901
2 10.1645 10.4438 11.0261
2 11.6457 1.08839 7.19116
2 1.27363 2.34348 11.5269
2 1.96062 11.618 3.9625
1 12.6323 7.27528 8.0297
1 4.87343 10.9785 1.53715
1 1.50259 4.84388 8.39802
1 8.22891 1.11475 1.09133
1 1.67049 9.65377 7.00915
1 7.98223 10.39 1.65546
1 9.79922 5.50748 8.42989
1 4.95811 1.59126 0.992289
1 1.36266 4.83339 5.40917
1 8.30313 1.09337 11.4168
1 10.7053 7.29833 3.78822
1 4.38187 11.3096 11.5094
1 11.0053 4.70197 5.53973
1 4.85678 1.60758 11.5296
1 1.07382 7.66318 4.51553
1 7.18229 10.1204 11.8047
1 10.2978 10.3985 4.23581
1 1.5095 10.3713 10.7827
1 2.3825 2.47102 3.10879
1 10.67 2.92777 10.5042
1 2.13907 10.4642 2.92838
1 9.78972 9.05529 10.8992
1 10.37 1.90393 3.54329
1 2.35799 2.56761 10.2921
1 12.7057 1.57887 1.2027
1 12.3205 1.81003 8.64282
1 12.0017 10.9721 1.73565
1 1.77156 12.6385 8.68182
1 11.2888 11.4841 11.7886
1 1.45239 12.6474 5.33017
1 0.0773308 1.41525 11.6923
1 11.0669 12.6788 5.90558
96
 Atoms. Timestep: 8000
2 10.648 7.85476 2.25754
2 5.08981 12.4855 12.0569
2 12.3688 4.81123 4.63022
2 8.68745 12.0678 12.5633
2 1.01535 5.76317 8.49219
2 9.03562 12.0769 2.5129
2 4.045 11.7538 5.21028
2 5.29116 0.173237 1.96028
2 9.81445 6.69414 4.85167
2 4.58664 10.613 0.0854248
2 1.43113 4.06732 6.46822
2 8.4105 1.42103 0.342268
2 0.111086 6.98035 3.51003
2 7.68484 10.2023 1.05073
2 10.3415 5.39628 6.77093
2 5.28624 2.27235 0.297325
2 8.31642 6.97061 2.83321
2 6.45745 10.6703 12.2669
2 1.04 6.20254 5.29133
2 6.78511 0.870571 12.888
2 11.9088 8.62923 4.61119
2 7.25702 1.61166 2.4443
2 9.20898 6.24008 9.08301
2 6.4181 11.2708 2.85807
2 12.7122 8.47742 9.10973
2 3.63628 10.8634 2.5883
2 2.49395 3.30877 9.76221
2 9.58942 1.96536 2.75544
2 -0.167414 7.52156 6.72387
2 6.70386 9.34899 3.60662
2 10.1037 3.9917 8.77847
2 4.07808 1.90546 2.50503
2 2.65489 3.5789 4.5022
2 8.80087 1.53886 10.9716
2 9.32476 9.44692 3.63317
2 3.47389 10.7724 11.1033
2 10.0522 4.20993 4.2364
2 4.14388 1.38224 11.1925
2 1.32394 8.32387 2.1209
2 8.44421 9.35442 12.0647
2 12.3817 11.3177 0.354827
2 1.59477 11.3086 6.34558
2 12.7263 2.32975 12.9068
2 10.8374 1.76588 4.60724
2 -0.217278 0.54885 1.25887
2 0.55004 2.96665 8.74054
2 12.411 0.0029034 12.0008
2 0.137444 0.265278 4.00925
2 11.7343 2.97647 1.7078
2 9.5366 9.42625 9.20508
2 1.64608 11.0122 2.14555
2 1.70684 0.184435 10.2167
2 1.82134 2.18729 2.33615
2 1.62933 11.0019 8.92552
2 11.774 11.567 3.28432
2 -0.361316 0.0772587 8.11793
2 1.13167 11.5092 11.9174
2 2.28652 0.806479 4.3215
2 11.3605 1.66921 10.4857
2 11.2981 11.8284 5.18964
2 10.8922 10.3533 11.3655
2 11.9899 1.47349 6.53649
2 1.13501 2.34436 11.2931
2 1.49182 8.71774 4.74105
1 12.5182 6.86476 8.31175
1 4.83044 11.211 1.90487
1 1.77893 4.16055 8.35114
1 8.62825 0.81637 2.01476
1 0.352162 7.44584 5.18569
1 8.00451 10.6021 2.86851
1 10.457 5.56509 8.39781
1 5.85192 1.78993 1.62503
1 1.063 4.78487 4.99517
1 8.32205 0.60307 12.2742
1 9.63941 7.75562 3.52444
1 4.67895 10.9637 12.0973
1 10.5693 5.36326 5.05696
1 4.83149 1.32422 12.6104
1 12.4984 7.61336 2.09725
1 7.95167 10.6672 13.0474
1 11.3461 10.5571 4.34343
1 2.01467 11.546 10.6616
1 2.73059 2.20792 3.77019
1 10.0925 2.63545 9.96877
1 2.27933 9.62899 3.08084
1 9.41226 9.40699 10.6081
1 10.7222 2.84078 3.15445
1 2.41498 1.74393 10.5505
1 0.26297 2.26347 1.36132
1 12.6414 1.79931 7.94979
1 0.315388 11.8172 2.16791
1 0.581947 11.6857 7.56802
1 12.3102 11.198 12.0326
1 2.61084 11.9696 4.93014
1 12.3429 1.5536 11.6789
1 11.7745 0.652529 5.16734
96
 Atoms. Timestep: 10000
2 10.7423 5.9795 1.94494
2 3.25032 0.918083 12.4349
2 12.5243 4.81922 5.79757
2 7.56666 0.735388 12.2354
2 0.985413 5.68681 8.48416
2 8.6863 8.81584 3.64246
2 5.60362 1.56093 5.37676
2 5.70647 0.0643596 2.81554
2 10.2108 7.21599 5.00271
2 4.42427 11.6022 0.79795
2 2.27658 4.88266 6.49731
2 7.10423 3.35343 0.949384
2 0.317423 7.02898 4.30931
2 7.84496 11.2969 1.49725
2 9.80479 4.64792 7.16461
2 3.14971 4.07927 10.42
2 9.00464 4.97005 1.91711
2 5.99633 11.2877 12.5313
2 1.85932 6.65116 5.55947
2 4.84913 2.6774 12.5403
2 12.2881 8.97906 4.70532
2 7.21611 2.52023 2.9892
2 9.58948 6.54475 9.73207
2 5.91966 9.52552 2.37918
2 2.83563 8.40787 9.49297
2 3.61381 9.57336 2.65622
2 0.851504 3.35002 9.10433
2 9.33409 2.61297 2.88649
2 1.11079 8.10695 7.07604
2 9.80467 9.62061 1.69431
2 8.64704 3.71266 9.06377
2 4.64189 3.00254 3.25449
2 2.7088 4.85424 3.68948
2 7.47949 3.14566 11.3441
2 7.78313 7.1105 2.50627
2 3.6551 10.7559 10.8822
2 10.5273 4.3598 4.37515
2 2.30882 1.63635 10.665
2 1.29555 7.60302 2.1063
2 8.723 10.1956 11.8769
2 11.7111 10.5567 0.310211
2 4.37304 1.06404 7.81785
2 1.53842 3.10575 12.6229
2 11.0834 1.18091 4.50338
2 12.4469 1.33161 2.04833
2 0.907547 2.90176 6.69272
2 11.0053 11.366 10.8647
2 11.2855 11.4909 3.07279
2 12.1565 3.38526 2.73074
2 9.77794 7.84246 13.161
2 0.969133 10.0939 2.24227
2 5.57714 0.928559 11.9289
2 2.3942 2.79061 1.84777
2 2.27222 11.4042 9.36263
2 11.2208 8.21087 2.3887
2 1.73117 0.977834 8.21063
2 1.1297 9.76259 11.3207
2 5.84384 3.88174 6.45915
2 10.0167 1.77385 9.87108
2 10.699 10.3913 4.96794
2 11.1901 9.43724 11.3547
2 12.0046 12.4328 6.23004
2 0.0967197 0.814126 10.0591
2 2.22734 8.79596 4.43406
1 1.91242 7.31312 8.5527
1 4.82638 10.8669 2.25207
1 1.29804 4.06995 7.71328
1 8.33666 3.46191 1.91669
1 1.07287 8.10766 5.35094
1 6.90996 8.53666 3.18665
1 9.6916 5.00824 8.80842
1 5.5787 1.60998 3.637
1 1.83624 4.98909 4.96791
1 6.53679 2.35043 12.5678
1 9.24087 6.45564 1.39098
1 4.18717 11.7846 11.9449
1 10.5022 5.56652 5.73947
1 3.11947 2.6422 11.6289
1 12.2828 6.59931 2.62106
1 7.74859 11.3844 12.6346
1 10.5432 8.85124 4.57197
1 2.34569 10.0086 10.2737
1 3.36768 3.79973 2.6076
1 8.72849 3.07721 10.5912
1 2.21198 8.7947 2.80884
1 9.80429 9.04427 12.0173
1 10.8538 2.68258 3.86787
1 1.08835 1.95045 9.5758
1 0.799698 2.89291 1.26708
1 0.389718 1.23732 6.98741
1 11.6724 10.1182 1.89712
1 3.18703 12.3246 8.14899
1 12.2072 10.4504 11.7445
1 5.35023 2.08644 6.78884
1 10.6698 0.517753 9.6565
1 11.4008 11.9248 4.54806
96
 Atoms. Timestep: 12000
2 12.3349 7.48368 1.36326
2 3.53995 11.4554 12.3946
2 1.11751 4.84091 5.54378
2 7.08161 0.875727 12.2314
2 1.42168 6.04391 9.67337
2 8.97485 8.18333 4.12797
2 6.35867 2.29286 5.37961
2 6.90123 0.993118 3.88057
2 10.6998 6.08342 5.09367
2 3.63262 9.53968 0.826166
2 2.67816 5.27913 7.46201
2 6.66476 4.10036 0.940618
2 0.87568 6.48264 3.43342
2 6.90047 11.0124 2.1328
2 7.507 6.71657 3.1277
2 2.80912 2.82205 1.83598
2 9.17867 4.59187 0.840851
2 6.13457 10.0372 12.2606
2 4.27196 5.96762 6.44961
2 4.7732 1.91878 0.785569
2 12.1994 8.13092 4.69053
2 7.17077 3.70419 2.98093
2 9.10127 7.34459 6.59988
2 6.64643 9.45834 3.4742
2 2.10915 9.13282 9.82202
2 4.61695 10.5647 3.72172
2 2.72099 3.90015 9.51657
2 9.11021 3.55634 2.58519
2 1.14926 7.75076 7.46464
2 11.056 11.464 2.42712
2 7.75629 5.01071 7.78675
2 4.51852 3.01128 3.40767
2 3.32358 4.11141 4.78272
2 7.56048 1.86833 7.45531
2 7.47735 8.22409 1.17916
2 3.33123 10.5126 10.5809
2 11.4672 4.02718 3.31436
2 2.95896 2.32414 12.0369
2 2.37855 8.77267 2.6624
2 9.46457 9.51474 11.2118
2 10.6339 10.2873 12.6169
2 4.55755 0.613933 7.10692
2 1.53117 1.08514 0.877703
2 11.0478 1.94241 4.18045
2 12.1258 11.975 4.10939
2 12.0558 4.02774 8.04918
2 10.2663 11.818 9.74699
2 8.80035 9.67694 2.66102
2 10.6758 2.01489 1.15096
2 9.55935 6.82854 11.7338
2 2.57941 11.6792 2.64108
2 5.33253 8.48746 11.3148
2 1.47565 1.68778 3.17565
2 2.4663 11.4673 8.74697
2 11.9006 9.33737 2.23599
2 3.12437 1.50087 9.67286
2 12.2727 10.7759 10.5521
2 6.47396 11.3135 5.43452
2 9.24705 2.97529 9.59175
2 10.6987 10.0085 4.93721
2 6.7003 8.06482 11.6231
2 11.5128 1.30042 6.65751
2 11.8739 1.92092 10.4614
2 1.92426 9.84869 7.04228
1 1.21885 7.84557 9.48126
1 6.4412 11.1484 3.76417
1 1.73288 4.7185 8.63465
1 7.70995 5.05334 2.1967
1 2.03129 8.50048 6.02045
1 7.81633 8.45843 2.71997
1 7.76816 6.53168 7.38194
1 6.21465 2.67878 3.73681
1 2.85371 5.41721 5.64198
1 6.3646 2.44197 12.2942
1 10.0618 5.05344 11.7934
1 4.52508 10.0294 11.8285
1 11.8454 5.32039 4.24932
1 3.28252 1.27774 0.857995
1 1.01855 8.09758 3.08314
1 7.10606 11.2478 12.7762
1 10.2739 7.97307 5.07428
1 1.93992 10.8292 10.0037
1 2.58028 3.16268 3.41085
1 8.2835 3.41743 7.95633
1 3.61077 10.2104 2.36971
1 8.48835 8.25308 12.0111
1 10.9235 2.72446 2.75173
1 2.07954 2.49578 10.6027
1 0.858847 0.63457 2.36988
1 11.3204 2.63018 7.82836
1 10.4292 10.0919 1.91648
1 3.15664 1.23391 7.82733
1 10.6235 10.4351 10.7334
1 6.04546 0.890113 6.45324
1 10.5043 1.63816 9.88335
1 10.9176 12.0191 5.21657
96
 Atoms. Timestep: 14000
2 2.55643 9.50986 4.52462
2 4.2652 11.5055 11.5573
2 2.54438 8.07258 8.94135
2 7.64233 9.19778 1.1282
2 11.6453 6.51982 7.48741
2 7.62341 7.71464 4.77171
2 5.5569 1.3884 3.99343
2 4.49344 2.90349 1.47811
2 9.73902 6.63407 5.30601
2 2.66577 9.33507 1.14598
2 2.42447 6.60363 7.15138
2 7.95329 2.97653 12.6532
2 11.4838 6.90495 3.53238
2 5.3186 9.0046 3.40175
2 8.06396 5.7613 2.02172
2 4.43604 2.06064 10.9675
2 9.24871 4.94978 11.9758
2 5.23646 10.1837 1.12854
2 3.86337 8.3031 7.21404
2 6.54183 1.46513 11.8041
2 9.62888 8.34719 7.14266
2 6.61895 3.72272 2.49661
2 7.97088 6.34171 7.17159
2 5.77516 6.53812 3.13972
2 11.7509 8.86449 8.31249
2 4.13542 6.07454 4.12924
2 2.09458 4.01596 8.50623
2 8.69412 2.72481 2.5844
2 1.60658 8.43164 6.65987
2 0.912786 11.5488 2.07644
2 7.6166 3.76791 8.01795
2 4.7915 3.97319 4.08023
2 4.60782 5.88663 6.5709
2 7.64589 1.5187 6.55144
2 9.092 8.08391 3.20129
2 3.28326 9.39575 10.6398
2 10.2711 4.13119 3.89719
2 3.25459 1.67176 10.1616
2 10.7599 7.3794 1.14907
2 9.58882 10.127 11.2015
2 10.6745 1.59645 2.89945
2 4.78673 2.19734 6.66555
2 4.00415 0.910857 1.46922
2 1.81595 2.2408 3.38196
2 1.45864 10.5652 6.83536
2 1.01134 4.49268 5.55041
2 10.6134 0.922498 10.9841
2 0.676111 11.0863 4.74854
2 9.88696 3.05572 5.94135
2 8.7668 7.62341 10.96
2 2.71876 10.7819 2.98703
2 5.39646 8.70894 11.5971
2 3.41066 3.62759 6.0423
2 3.20841 11.1165 8.41592
2 11.2858 9.70985 3.05681
2 2.38821 1.87335 8.1139
2 0.948843 10.7572 9.70301
2 2.94992 7.85797 3.18859
2 9.79695 2.59876 8.73896
2 10.1149 1.21769 6.80265
2 6.90824 8.696 11.0832
2 1.03638 1.98298 5.83275
2 11.835 2.01117 9.76904
2 3.37824 11.0283 6.44741
1 11.5135 8.06905 7.05072
1 4.50606 7.58521 3.14492
1 1.27834 5.17158 7.26236
1 8.35426 4.20478 1.77743
1 2.74189 9.49409 6.36979
1 7.53182 7.07529 3.21754
1 7.12618 4.97955 7.25254
1 5.06676 2.8409 3.02287
1 3.7147 6.91729 7.76896
1 8.11112 2.02127 11.4586
1 9.88364 6.50745 11.9487
1 4.08685 9.8787 11.9629
1 11.1934 5.36165 4.78497
1 5.00841 1.57981 12.2187
1 10.6346 8.20233 2.8764
1 6.45606 9.67275 2.24446
1 8.53259 7.42602 6.20719
1 2.08061 9.74749 9.13951
1 4.50876 5.0407 5.2568
1 8.75776 2.36508 7.28436
1 2.16077 9.19691 2.91199
1 8.41738 9.06763 11.6257
1 10.0411 2.65721 3.8451
1 2.03621 2.68982 9.69762
1 2.41045 1.08643 2.13375
1 1.96559 3.11587 5.03639
1 10.8975 11.2738 2.95598
1 3.57465 1.12217 7.32922
1 10.807 10.8329 10.2686
1 6.15835 1.6788 5.90855
1 10.0343 2.28899 10.1869
1 11.8749 11.685 6.3707
96
 Atoms. Timestep: 16000
2 3.25539 9.29727 4.52922
2 3.19846 11.7047 11.8277
2 7.41823 8.26804 8.78078
2 7.49842 9.38156 11.5724
2 0.600821 5.25575 7.29692
2 8.41332 8.36453 6.83482
2 4.40854 2.1252 3.22016
2 3.71381 3.17537 1.14721
2 10.3394 7.06766 7.27531
2 3.53736 10.2239 2.07214
2 2.65201 5.42164 6.42304
2 7.28882 2.48248 11.0884
2 11.181 6.5143 4.73372
2 5.27685 8.57655 9.48881
2 6.78271 6.67419 5.34709
2 1.97064 2.53393 11.4216
2 8.64931 4.12443 0.624902
2 4.86838 9.38458 11.77
2 4.10912 7.00132 7.57427
2 5.20065 2.92228 9.59032
2 11.2177 8.97805 7.58618
2 6.07196 2.85459 1.0883
2 11.2573 4.48296 1.86599
2 7.67933 10.0775 2.27338
2 1.62903 8.8071 9.58467
2 5.73391 7.98575 3.65094
2 1.31527 2.92019 7.94253
2 7.93316 1.31168 1.13028
2 1.34413 7.75238 6.89328
2 11.8989 11.2108 1.9328
2 9.20911 6.81574 8.98587
2 4.90039 4.93731 3.25866
2 6.54647 6.04196 8.27265
2 6.23852 1.60401 4.96185
2 9.16128 6.94531 4.03593
2 2.33162 9.5718 12.7228
2 11.3329 3.64153 2.92845
2 3.71907 3.38156 9.29721
2 9.89929 6.5848 1.85534
2 9.53559 10.8193 10.491
2 9.34307 11.3782 1.75869
2 3.61137 0.545328 5.97951
2 1.86295 1.66728 1.71259
2 1.37877 1.7866 3.841
2 10.2263 2.4933 8.14719
2 1.20972 3.44016 5.44194
2 10.3542 1.14253 10.1983
2 11.8098 10.6781 8.58751
2 8.65644 0.521201 4.05232
2 10.1824 5.29807 11.6992
2 2.1886 10.8251 3.38872
2 5.46005 8.95382 7.23716
2 4.30166 7.21849 5.24919
2 4.77396 10.516 7.43205
2 10.6754 9.17388 3.14592
2 2.94229 1.61122 8.4758
2 0.730128 10.7684 10.8749
2 5.4297 10.0536 3.25102
2 9.67746 4.07021 9.63683
2 8.43356 1.2666 6.59666
2 9.92374 8.70311 9.93687
2 10.6757 2.09382 5.2695
2 12.0913 2.18177 9.98058
2 2.2547 10.6259 7.39906
1 1.27536 9.39295 7.94061
1 6.49036 8.88669 2.55804
1 1.73443 4.18273 6.73701
1 7.65931 2.81465 12.5556
1 2.9417 6.92271 6.39743
1 8.31555 7.39518 5.44984
1 9.52385 5.54561 10.2726
1 5.01336 3.58834 2.10613
1 5.73743 7.47168 8.16866
1 6.39189 1.76201 9.86647
1 9.94718 4.95649 0.929471
1 4.15063 10.2778 0.498143
1 11.6587 6.49284 6.33907
1 2.68702 1.66479 12.6568
1 10.5021 7.36564 3.12355
1 5.93477 9.0787 10.7446
1 9.47214 8.20477 8.23936
1 1.25469 9.22114 11.5358
1 5.3028 6.44894 4.2136
1 7.77679 1.5368 5.24101
1 3.96843 10.391 3.66786
1 9.07357 9.38826 11.2159
1 7.83273 11.7515 2.58463
1 2.15601 2.58535 9.64958
1 1.2771 12.1185 2.91972
1 11.8655 2.9202 4.21283
1 10.5468 10.5145 1.94801
1 3.43391 11.8384 7.64262
1 11.0763 11.3141 9.966
1 4.69633 1.22158 4.62427
1 10.571 2.64157 9.71912
1 10.0868 1.42952 6.85229
96
 Atoms. Timestep: 18000
2 2.01262 9.92687 5.58533
2 2.63617 0.481896 12.2533
2 6.58905 7.96712 8.65065
2 5.97819 0.818629 9.02615
2 1.1318 5.77467 6.66585
2 9.23632 5.06764 6.61911
2 4.96762 2.55763 4.25911
2 4.17857 2.84308 1.45405
2 10.7987 7.15634 7.38103
2 2.41013 8.05213 3.35231
2 4.25211 4.61954 6.21441
2 6.97616 3.15708 12.4891
2 11.8931 6.74784 4.85335
2 5.07825 9.33416 8.20465
2 7.10516 5.66684 4.73359
2 1.99828 3.03402 11.4045
2 9.94619 3.2637 1.87625
2 4.15091 10.9882 10.0863
2 4.30553 7.34765 7.32834
2 4.95464 6.02929 11.3504
2 0.831785 11.9466 4.76135
2 6.60269 3.27451 2.46168
2 1.69155 3.40165 1.44627
2 7.1418 10.2523 2.65414
2 1.54748 9.95692 7.67747
2 6.00952 7.52341 2.90017
2 2.35757 3.49085 8.49106
2 7.9841 1.36885 2.05468
2 11.7397 9.37133 5.91338
2 0.491227 10.808 3.11964
2 9.81299 5.27429 9.48671
2 4.79493 4.53249 3.24742
2 5.25232 7.07256 10.2885
2 5.66407 1.75902 6.21506
2 9.72692 6.21975 4.07293
2 1.66252 10.2058 10.2026
2 12.0592 2.17107 5.26173
2 4.69577 3.7053 10.8109
2 11.9909 5.33872 2.48539
2 9.05722 9.42303 9.27501
2 9.76986 11.182 2.56271
2 3.39162 2.24615 7.05049
2 1.80896 1.13465 1.73443
2 2.0052 2.03614 3.85976
2 9.84415 2.20042 7.85157
2 2.08706 3.87657 6.42189
2 10.9602 11.488 9.44231
2 11.1002 10.8183 7.42281
2 7.01178 12.0231 4.18532
2 10.7778 4.00879 12.1092
2 2.7071 10.6883 3.17691
2 3.35552 7.75014 9.80696
2 4.63829 6.56922 4.83951
2 4.07063 0.399155 7.92134
2 11.7105 8.13854 3.1153
2 2.40459 0.838191 9.41629
2 11.8728 9.12256 9.2466
2 4.53304 9.03277 3.93979
2 10.5934 2.87378 10.1712
2 7.99376 2.29732 5.61897
2 8.5998 7.01625 8.17245
2 10.9714 2.41981 5.98255
2 0.339349 2.87465 8.07709
2 0.742632 0.708987 7.1416
1 0.85092 10.7852 6.32579
1 5.79339 9.19201 3.05179
1 1.17665 4.34076 7.65898
1 8.02564 3.02581 1.65059
1 4.2064 6.04677 6.28123
1 8.64067 6.52768 5.2174
1 10.1437 4.20788 10.659
1 5.03899 2.94566 2.75179
1 4.95488 7.71215 8.7491
1 5.78173 4.55561 11.774
1 11.486 3.98182 1.48139
1 2.68004 11.321 10.605
1 12.0693 7.30468 6.41318
1 2.65257 2.10532 0.534226
1 11.0775 6.56496 3.36935
1 5.05815 10.9515 8.68462
1 9.69399 5.90691 7.95764
1 1.81414 8.88047 9.06532
1 5.64422 6.0939 3.51376
1 6.89903 1.09328 5.61182
1 3.01024 9.47007 4.17752
1 8.06401 8.18111 9.12571
1 8.10467 11.4795 2.94036
1 2.95181 3.73418 10.0502
1 1.49457 12.0477 3.26026
1 1.9127 2.82904 5.21136
1 10.8874 9.9566 2.39515
1 2.46788 1.2852 7.77437
1 10.6205 10.0806 8.92548
1 4.63524 2.99539 5.96545
1 11.1604 1.61346 8.84626
1 9.35482 3.24187 6.46574
96
 Atoms. Timestep: 20000
2 2.80271 9.66237 5.99095
2 4.92928 1.59483 10.6513
2 9.16857 8.17477 10.8693
2 7.42184 9.5086 9.53808
2 1.65933 5.98557 6.41022
2 8.68371 5.3025 5.73862
2 3.91831 2.20701 3.91845
2 2.19226 2.68318 2.0745
2 11.7141 8.10033 7.33839
2 2.41435 7.89103 5.08224
2 4.65676 4.37784 5.53163
2 6.79232 3.23175 11.9582
2 12.0291 6.46774 4.72978
2 4.75788 8.75251 8.56152
2 6.67146 6.37943 2.90101
2 1.36251 5.19707 10.4256
2 8.85075 3.1827 1.87865
2 5.6519 11.1744 10.5851
2 3.9816 6.63742 7.22121
2 5.30649 5.36494 10.872
2 0.860806 10.593 5.48757
2 5.28951 2.36704 1.54431
2 11.3796 2.13162 0.882403
2 7.30074 10.0698 3.19415
2 2.11552 9.24601 8.12935
2 7.28185 7.95396 5.22531
2 2.25692 3.8677 8.27406
2 7.99745 1.21703 2.01324
2 10.536 7.28698 5.78554
2 11.6461 9.72348 3.5977
2 10.648 6.73344 10.013
2 4.28943 4.49128 2.18827
2 4.53572 6.19638 10.1662
2 5.98498 1.85184 4.4404
2 9.20512 6.74556 3.87523
2 3.03665 10.972 10.7773
2 11.5261 3.01392 2.77611
2 3.94399 3.64778 10.8694
2 10.5988 5.17358 2.24283
2 10.2694 10.3345 10.0686
2 9.83117 10.3866 2.49142
2 4.01634 2.15675 6.79964
2 1.12538 11.9299 2.16152
2 0.448399 0.979405 4.36135
2 9.12412 3.27381 7.75822
2 0.556608 3.66293 5.87454
2 10.5944 1.02109 8.60921
2 12.2969 11.056 7.63105
2 8.32142 11.7042 3.92767
2 10.7494 4.35919 11.962
2 2.57585 10.0741 3.82763
2 2.65805 7.73418 9.66215
2 4.19712 6.03757 3.9942
2 5.13512 11.7243 8.27251
2 11.2068 7.53258 2.29204
2 3.11603 2.29226 9.45919
2 1.20202 10.2457 9.99013
2 5.11547 9.5399 4.23676
2 10.1731 3.96692 10.0632
2 7.82459 2.0006 6.15106
2 9.87437 8.52751 8.87614
2 10.4008 2.67516 5.91184
2 11.3271 3.84427 8.27235
2 2.78812 11.6131 7.81339
1 1.86411 10.7194 6.95006
1 6.69778 9.57606 4.72855
1 1.15383 4.42443 7.31282
1 7.16755 2.65676 1.28768
1 3.32014 5.56243 5.86196
1 7.72354 6.30329 4.47283
1 11.1637 5.33447 10.6039
1 3.89977 2.81101 2.44156
1 4.00766 7.23308 8.73528
1 5.40339 3.55713 10.9096
1 10.6086 3.7332 1.34259
1 4.30881 11.6202 11.3672
1 0.85233 7.35873 6.08008
1 1.23679 1.60209 1.38204
1 10.6842 6.23801 3.50304
1 5.70437 10.1449 9.06801
1 11.2668 7.82977 8.74485
1 2.39057 9.41945 9.79778
1 5.13891 6.21145 2.52928
1 7.47377 1.34246 4.73418
1 3.73546 9.07395 4.91204
1 8.85431 9.26651 10.0642
1 8.34666 11.0476 2.24782
1 2.54317 3.88875 9.85094
1 1.07574 11.1353 3.73261
1 11.4357 2.54434 4.6023
1 10.8256 9.04904 2.33941
1 3.49052 1.38813 8.11581
1 11.3388 11.1429 9.10825
1 4.61002 2.53047 5.44782
1 10.0645 2.67963 9.02952
1 8.79237 3.45495 6.23906
96
 Atoms. Timestep: 22000
2 2.54102 9.62441 4.68239
2 3.5991 4.06005 1.97796
2 8.91652 8.55983 11.5175
2 7.42245 9.09537 8.955
2 1.08494 5.82727 8.58921
2 8.12638 5.19785 4.99876
2 5.49909 4.60001 6.29462
2 1.51635 2.90334 11.7915
2 1.6923 6.38246 6.49898
2 2.76651 6.9642 3.55287
2 3.41993 4.3 7.43381
2 6.33634 4.62392 1.57486
2 11.6055 6.61562 4.70664
2 4.90063 8.58598 9.50972
2 6.58795 7.22921 6.29464
2 2.46006 3.85102 10.2261
2 8.67413 4.14604 1.86146
2 5.07903 11.201 9.09843
2 3.73598 5.93555 9.58558
2 5.00005 6.67066 1.39133
2 0.791575 10.7756 4.29863
2 6.6328 3.67915 3.86803
2 1.03271 3.53338 2.44574
2 6.2886 10.3969 2.79714
2 1.87001 9.04022 6.88482
2 6.88513 7.97896 4.17199
2 5.22061 4.05417 9.07021
2 7.15409 1.83113 2.203
2 2.30847 4.2471 4.54295
2 11.3892 9.48084 1.0272
2 10.8834 5.2505 9.99874
2 4.9216 5.03517 3.34866
2 4.41129 7.3767 11.8228
2 6.03954 11.1485 5.30106
2 8.9875 7.4334 5.04246
2 2.72051 11.4452 9.8878
2 10.3612 2.43576 2.44101
2 5.1418 4.80909 11.5152
2 10.4894 5.33643 3.41593
2 9.65465 9.66592 8.64987
2 8.29904 9.99943 1.53954
2 4.72309 1.9643 6.73445
2 1.16999 1.33134 1.78911
2 10.6476 11.2106 2.82617
2 9.89074 4.08828 6.54178
2 11.8421 1.83019 3.70781
2 9.87545 1.55992 7.76742
2 10.8972 10.7847 6.39215
2 8.37295 11.8408 3.76502
2 10.9572 4.48552 12.1342
2 2.37635 9.46136 2.44785
2 2.72504 8.72668 10.1996
2 4.11743 7.25542 7.75191
2 5.72054 10.1677 7.41642
2 9.80431 7.59609 2.19096
2 4.60602 2.74895 10.6684
2 11.6394 10.5469 9.06208
2 4.75086 8.43338 4.93325
2 10.7244 3.34758 9.25475
2 7.85428 2.51654 5.32193
2 9.28073 7.01743 8.87719
2 10.0068 2.82271 4.4682
2 1.20681 2.96505 6.55718
2 2.90173 11.1042 6.26284
1 1.35352 10.0839 5.76365
1 6.13203 9.65306 4.20165
1 1.8601 2.76032 4.99887
1 7.35441 3.41947 2.35638
1 2.69514 5.85088 8.04745
1 7.61229 6.81908 5.14882
1 11.6193 3.70145 10.5896
1 5.68386 4.81812 4.73647
1 4.0134 7.54642 10.2892
1 4.84364 5.07291 1.51136
1 10.5806 4.14532 2.16874
1 4.17862 1.04493 9.84542
1 1.95271 5.86738 4.73491
1 2.1552 2.65214 1.57766
1 10.1734 6.87857 3.76416
1 5.96123 9.77326 9.21537
1 10.3839 5.7715 8.53954
1 2.08888 9.94196 9.3747
1 5.0421 7.73002 6.53696
1 7.36658 0.880446 5.2206
1 3.53356 8.55844 3.7308
1 8.99399 8.49562 9.67491
1 7.5461 11.2645 2.24664
1 4.14524 4.32267 10.3773
1 0.929678 10.5667 2.3477
1 9.9468 1.44014 3.71085
1 9.9754 8.94638 0.965192
1 4.72837 11.2679 6.31291
1 10.2921 11.117 8.01967
1 4.8871 3.57036 7.34585
1 10.7967 3.04512 7.37652
1 8.72435 3.78017 5.22528
96
 Atoms. Timestep: 24000
2 2.79686 9.41754 3.88566
2 3.33089 5.21133 1.25832
2 9.14031 8.8758 11.2761