96
 Atoms. Timestep: 0
2 0 7.95642 4.74695
2 4.63304 0 11.358
2 0 4.63304 4.74695
2 7.95642 0 11.358
2 0 4.63304 8.47514
2 7.95642 0 1.8641
2 0 7.95642 8.47514
2 4.63304 0 1.8641
2 10.7421 8.43088 6.61105
2 4.15858 10.7421 0
2 1.84736 4.15858 6.61105
2 8.43088 1.84736 0
2 1.84736 8.43088 6.61105
2 8.43088 10.7421 0
2 10.7421 4.15858 6.61105
2 4.15858 1.84736 0
2 10.5201 6.29473 5.04003
2 6.29473 10.5201 11.6511
2 2.06934 6.29473 5.04003
2 6.29473 2.06934 11.6511
2 2.06934 6.29473 8.18207
2 6.29473 2.06934 1.57102
2 10.5201 6.29473 8.18207
2 6.29473 10.5201 1.57102
2 10.1594 8.65935 9.20274
2 3.93011 10.1594 2.59169
2 2.43004 3.93011 9.20274
2 8.65935 2.43004 2.59169
2 2.43004 8.65935 9.20274
2 8.65935 10.1594 2.59169
2 10.1594 3.93011 9.20274
2 3.93011 2.43004 2.59169
2 2.43004 3.93011 4.01936
2 8.65935 2.43004 10.6304
2 10.1594 8.65935 4.01936
2 3.93011 10.1594 10.6304
2 10.1594 3.93011 4.01936
2 3.93011 2.43004 10.6304
2 2.43004 8.65935 4.01936
2 8.65935 10.1594 10.6304
2 0 10.703 0
2 1.88643 0 6.61105
2 0 1.88643 0
2 10.703 0 6.61105
2 0 0 1.872
2 0 0 8.48305
2 0 0 11.3501
2 0 0 4.73905
2 11.2706 2.31295 2.18973
2 10.2765 11.2706 8.80078
2 1.31887 10.2765 2.18973
2 2.31295 1.31887 8.80078
2 1.31887 2.31295 2.18973
2 2.31295 11.2706 8.80078
2 11.2706 10.2765 2.18973
2 10.2765 1.31887 8.80078
2 1.31887 10.2765 11.0324
2 2.31295 1.31887 4.42131
2 11.2706 2.31295 11.0324
2 10.2765 11.2706 4.42131
2 11.2706 10.2765 11.0324
2 10.2765 1.31887 4.42131
2 1.31887 2.31295 11.0324
2 2.31295 11.2706 4.42131
1 11.0086 7.83654 8.10972
1 4.75292 11.0086 1.49867
1 1.5809 4.75292 8.10972
1 7.83654 1.5809 1.49867
1 1.5809 7.83654 8.10972
1 7.83654 11.0086 1.49867
1 11.0086 4.75292 8.10972
1 4.75292 1.5809 1.49867
1 1.5809 4.75292 5.11238
1 7.83654 1.5809 11.7234
1 11.0086 7.83654 5.11238
1 4.75292 11.0086 11.7234
1 11.0086 4.75292 5.11238
1 4.75292 1.5809 11.7234
1 1.5809 7.83654 5.11238
1 7.83654 11.0086 11.7234
1 10.1088 10.1088 3.30552
1 2.48067 10.1088 9.91657
1 2.48067 2.48067 3.30552
1 10.1088 2.48067 9.91657
1 2.48067 10.1088 3.30552
1 10.1088 10.1088 9.91657
1 10.1088 2.48067 3.30552
1 2.48067 2.48067 9.91657
1 0 1.60471 1.57853
1 10.9848 0 8.18958
1 0 10.9848 1.57853
1 1.60471 0 8.18958
1 0 10.9848 11.6436
1 1.60471 0 5.03252
1 0 1.60471 11.6436
1 10.9848 0 5.03252
96
 Atoms. Timestep: 2000
2 12.6202 7.40743 4.30141
2 5.02913 13.0953 11.543
2 0.471048 4.79039 4.65372
2 7.91844 0.0335044 11.4079
2 0.685843 4.05863 8.75604
2 8.17771 -0.0213521 0.877393
2 -0.0522626 7.49845 8.03736
2 4.81659 12.6684 0.876112
2 11.0798 7.92717 7.16084
2 4.91285 10.7673 12.9365
2 2.37206 4.50495 6.82841
2 8.11498 1.39096 13.2357
2 1.44186 7.61746 6.17507
2 8.65611 10.9711 13.4575
2 12.0295 4.74182 6.6607
2 4.68401 1.986 0.0103216
2 10.9487 5.98015 5.33145
2 6.73162 11.3203 11.0194
2 2.14221 6.10239 4.74177
2 6.18273 1.97609 11.969
2 2.49753 6.3671 8.42019
2 6.34213 1.22527 1.79229
2 11.4436 5.89685 8.26313
2 6.37659 10.7262 1.50582
2 10.5393 8.5571 9.79527
2 3.56742 10.5038 2.07605
2 2.62946 3.59726 9.77843
2 8.70738 2.4503 2.55388
2 1.72399 9.4323 8.56557
2 8.97973 10.1655 2.05604
2 10.9918 3.1979 8.91939
2 3.29074 1.13919 2.34385
2 2.38783 2.93656 4.39911
2 8.86314 2.96201 10.9252
2 11.2734 8.90819 4.66898
2 3.65388 11.0003 10.1291
2 11.6005 3.17 4.29074
2 3.10071 1.75685 11.9899
2 1.69081 9.52822 3.96656
2 9.64395 11.1666 11.575
2 -0.654688 11.2263 13.3302
2 0.985893 0.650947 6.81489
2 10.4961 10.5095 0.105423
2 10.3934 -0.208856 6.45053
2 12.3345 -0.134133 1.37074
2 12.1804 0.267665 8.67853
2 12.6037 12.8244 11.6688
2 11.9311 0.562514 5.03591
2 11.2088 2.42964 1.77417
2 10.9077 11.0891 8.27701
2 0.399741 10.9902 2.2326
2 1.60171 1.32461 9.33447
2 1.08199 1.47604 1.33712
2 0.916736 12.4435 9.26234
2 11.5498 9.89362 2.31826
2 10.3371 0.797822 9.37445
2 1.47727 11.2735 11.2171
2 0.972164 0.97301 3.65735
2 11.1771 1.69606 11.2278
2 9.92327 11.3119 4.51043
2 12.1022 10.8203 10.5271
2 10.0236 1.14752 4.16651
2 0.89122 2.07169 11.5634
2 1.96828 12.3244 4.34715
1 11.5327 7.79367 8.71094
1 4.81147 11.0267 0.695159
1 2.25239 4.79817 8.58516
1 8.06069 1.7334 1.32933
1 1.51745 8.039 7.92991
1 8.07769 11.3038 1.27541
1 12.1593 4.23326 8.10899
1 4.89073 1.15978 1.42248
1 1.93724 4.22046 5.14287
1 7.81082 1.6538 11.5923
1 11.4511 7.51512 5.61803
1 5.0958 11.1959 11.3624
1 11.9022 4.65535 5.08537
1 4.32834 1.1033 12.4538
1 1.2306 7.76159 4.66287
1 8.08226 11.3681 12.0982
1 10.3326 9.90294 3.48724
1 1.94457 10.9459 9.4897
1 1.95539 2.00036 2.85769
1 10.5906 2.44703 10.1721
1 2.22312 11.0924 3.07096
1 10.6236 10.4042 10.1116
1 10.4537 2.32697 3.25161
1 2.26556 2.23733 10.4728
1 12.3796 1.44683 0.887289
1 10.7617 12.7726 7.95609
1 11.9473 11.5104 1.32553
1 0.541396 0.853154 8.33879
1 -0.150693 11.1916 11.8613
1 0.750009 0.264937 5.20288
1 -0.431608 1.27579 12.1345
1 10.5919 12.6371 5.00731
96
 Atoms. Timestep: 4000
2 12.1816 8.21484 4.57732
2 3.87752 -0.182762 11.5932
2 12.1711 4.62458 5.23082
2 7.83813 12.9975 10.8366
2 11.9806 5.23332 7.91989
2 7.54644 11.935 1.37862
2 12.1316 8.38412 7.94543
2 5.21156 12.1706 1.68334
2 9.89 8.35527 6.33787
2 4.49819 10.0049 13.0002
2 1.65154 4.39456 6.37246
2 8.13288 1.48696 13.0866
2 0.694054 7.39014 6.28979
2 7.70164 10.1796 13.2957
2 10.3328 4.37393 6.46242
2 4.10278 1.21388 13.3398
2 9.97122 6.20386 4.60944
2 6.08191 11.5039 11.114
2 1.4992 6.00306 4.49861
2 6.27424 2.07142 11.961
2 0.90867 6.42617 8.89979
2 6.24086 1.00448 1.89496
2 10.115 6.53733 8.40526
2 6.09195 10.2608 1.68241
2 10.3283 9.60594 9.03359
2 4.00857 9.32564 2.64396
2 1.80864 4.02509 9.28712
2 8.58286 1.81703 1.91039
2 1.36325 9.25708 8.64063
2 8.88163 10.3236 2.50908
2 10.5166 3.61386 8.96621
2 3.31444 1.88367 2.17832
2 2.38181 3.32058 4.17749
2 9.11272 2.57977 10.6451
2 10.1094 9.26739 4.04705
2 3.19928 10.4553 11.2772
2 10.8381 3.19299 4.26539
2 3.80288 2.50766 10.8202
2 1.67641 8.67743 3.94374
2 8.75423 10.2981 11.032
2 1.14136 12.2073 -0.113565
2 2.95652 12.5199 6.79809
2 3.03525 11.0912 0.971847
2 10.7361 0.895803 6.81699
2 1.59524 3.44607 12.5017
2 0.233077 12.6406 8.15206
2 0.313239 1.10069 12.7029
2 12.1927 0.369407 4.26421
2 11.2055 1.03353 2.40062
2 11.2358 11.973 9.39491
2 1.66275 10.7752 2.70577
2 2.32753 1.16419 8.98142
2 1.38535 0.858252 3.26798
2 2.14493 11.2317 8.49688
2 11.7534 11.6268 2.44304
2 11.4527 1.40053 9.29089
2 1.40567 11.6602 10.8561
2 3.89968 0.583015 4.89904
2 11.6009 2.84234 11.7404
2 10.3557 11.6934 4.56456
2 12.3052 11.8623 11.0918
2 9.92304 1.21509 4.20491
2 0.844642 1.91042 10.9179
2 2.79114 10.7322 4.9447
1 10.5251 8.29161 7.9786
1 4.64897 10.5048 1.0769
1 0.816764 4.70886 8.13691
1 7.8093 0.753748 1.01675
1 0.830043 7.81299 7.97185
1 7.62892 10.193 1.41115
1 10.4535 5.03187 8.00045
1 4.57896 0.992128 1.37567
1 1.21315 4.54707 4.89091
1 7.87667 1.61465 11.5623
1 10.425 7.80033 4.72767
1 4.41452 11.1369 11.7212
1 10.4823 4.69917 4.74422
1 4.71611 1.42064 11.8584
1 0.759039 7.43507 4.66687
1 7.59216 11.3946 11.684
1 10.3751 10.7405 3.00691
1 1.9482 10.1938 10.1123
1 2.83081 1.58603 3.86846
1 10.6934 2.55579 10.429
1 2.60984 9.89562 3.38998
1 10.3338 10.646 10.2511
1 10.126 2.1312 2.86236
1 2.09507 2.55769 9.91276
1 -0.267626 0.0333335 2.64304
1 11.6352 0.140224 8.15922
1 1.31523 11.2183 1.16606
1 1.83753 12.7711 7.99394
1 0.564077 12.624 11.8513
1 3.38523 12.0153 5.35805
1 0.0483233 2.58808 12.3485
1 10.4979 0.256419 5.45007
96
 Atoms. Timestep: 6000
2 12.7126 8.06165 5.2805
2 4.09635 0.369686 11.5945
2 12.9807 5.13361 4.96081
2 7.43441 0.454253 11.739
2 12.1016 4.9512 8.35112
2 7.81914 12.3771 1.78194
2 9.59394 6.81311 7.48151
2 4.44612 12.7963 0.445683
2 10.9875 8.20009 6.68585
2 4.03061 11.1555 12.7902
2 1.63116 4.88805 6.72384
2 8.09978 1.65675 0.267221
2 1.50371 8.16233 6.81021
2 8.3576 11.0579 -0.303323
2 10.2145 5.0237 6.65386
2 4.15739 2.33466 -0.280825
2 9.6964 7.34166 4.69044
2 6.90311 11.6354 11.8752
2 1.66394 6.4396 4.45494
2 5.99621 1.90625 11.4471
2 1.09001 6.29492 8.70335
2 6.04234 1.14111 1.74335
2 8.88415 9.60428 7.19029
2 6.05299 10.4291 0.826728
2 9.85336 9.26002 9.21361
2 4.21272 10.472 2.47347
2 1.80448 3.97003 8.96119
2 9.14532 1.77333 2.50222
2 2.25435 8.4747 9.78824
2 9.46189 11.3599 2.33471
2 10.1874 3.13233 8.86346
2 3.52442 1.69743 2.32458
2 1.95507 3.34679 4.59264
2 9.37481 2.14808 11.651
2 11.73 9.80834 4.07915
2 4.4477 10.6415 10.3706
2 10.6304 3.7167 4.40729
2 3.57479 2.79187 10.4767
2 1.72783 9.16777 4.39643
2 9.65526 11.6927 11.1343
2 0.387183 10.0493 12.9024
2 1.62178 12.4636 6.52948
2 3.04925 9.98803 0.57642
2 10.6394 11.9301 7.00127
2 0.442542 12.6274 11.8243
2 12.4666 13.0507 7.84781
2 0.337858 12.1679 9.92063
2 11.7822 1.80311 3.26729
2 0.355489 11.8242 2.78518
2 10.833 11.2951 9.03601
2 0.924056 9.86147 1.98581
2 2.23512 0.952462 8.84452
2 1.21225 1.53682 3.35119
2 2.62623 11.4743 8.74995
2 11.5362 12.7353 3.22331
2 10.0602 0.450602 9.56732
2 1.68717 11.046 10.967
2 3.00415 1.19224 4.88962
2 11.899 1.47193 10.6643
2 10.2119 11.1319 4.77713
2 11.8417 10.4802 11.0732
2 9.87986 0.563452 4.56396
2 1.11077 2.28317 10.5195
2 2.59026 11.609 4.40467
1 9.70069 8.43742 7.8753
1 4.37292 10.7548 0.829077
1 0.587736 4.93203 8.1016
1 7.77199 0.832235 1.79274
1 2.39663 7.35855 8.1341
1 7.72781 10.8666 1.08957
1 10.767 4.42518 8.14918
1 4.42175 1.30658 1.05622
1 1.32487 4.61812 5.11605
1 7.74534 1.97515 12.1556
1 11.1456 8.45169 4.96122
1 4.93342 11.7006 11.68
1 10.5519 5.49136 4.82288
1 4.39499 2.12459 11.9239
1 1.13827 7.81109 5.18113
1 8.30133 12.3146 12.2091
1 10.7957 11.2984 3.2388
1 2.78929 10.2949 9.98362
1 2.64179 2.20115 3.72412
1 10.3231 1.92694 10.3304
1 1.59955 10.5858 3.50742
1 10.3992 10.4439 10.3871
1 10.0932 1.94882 3.74962
1 2.46397 2.57602 9.4211
1 0.156908 0.246179 3.47326
1 10.9602 12.786 8.36326
1 1.34884 9.71899 0.344719
1 1.00602 12.6551 8.26154
1 0.244815 11.1238 11.691
1 3.11654 12.7519 5.44283
1 0.364515 1.12562 11.4358
1 9.6728 12.3699 5.60034
96
 Atoms. Timestep: 8000
2 12.3952 7.10041 5.6909
2 6.78957 12.2018 10.1056
2 11.3652 5.60408 4.39014
2 8.39868 0.335299 12.1629
2 0.190047 4.56569 7.66409
2 7.07046 0.115141 2.29508
2 7.07781 8.98698 9.80272
2 3.3869 12.3279 1.38408
2 8.83524 8.90089 7.80169
2 7.17238 9.95326 12.2432
2 0.961347 4.8541 5.55542
2 6.95494 2.14153 -0.140862
2 1.98329 7.82758 6.47093
2 8.80176 10.6887 0.868692
2 10.4252 4.78365 6.38495
2 4.01821 0.889543 12.183
2 8.76715 6.80634 5.75653
2 8.57448 10.8718 11.2096
2 1.53744 6.11109 3.87143
2 7.08583 1.47135 10.6494
2 2.22486 6.23359 8.16572
2 5.09765 2.22657 0.694131
2 10.2436 0.421152 7.47825
2 6.82321 9.913 2.13495
2 9.81181 8.4793 10.1298
2 6.4216 7.68039 1.57251
2 2.29334 3.90461 8.1208
2 7.14534 2.83534 2.81396
2 3.69053 8.34126 8.79899
2 8.38642 10.4845 3.66135
2 10.9757 3.74737 8.93233
2 2.34842 2.27367 1.45052
2 0.282898 3.40984 3.27328
2 9.56467 2.23227 11.16
2 9.86741 9.4028 5.34766
2 5.09471 10.0818 10.2858
2 8.96037 4.48837 4.51532
2 4.48927 2.10118 9.85297
2 1.2657 8.47962 3.99146
2 10.4627 10.0412 11.843
2 2.22561 10.7926 12.9334
2 2.36463 0.141158 6.75284
2 4.69051 10.0286 13.4955
2 9.84065 2.6783 6.63498
2 0.323897 0.232009 11.8207
2 0.292614 12.5443 7.93308
2 1.41623 12.254 10.1875
2 8.30412 1.94865 5.44676
2 12.5074 10.37 2.9751
2 10.7848 10.9515 9.11888
2 2.74571 9.80226 2.27564
2 2.54409 1.55976 8.58137
2 12.4533 0.73787 2.42866
2 3.51691 11.6041 8.25018
2 10.6701 11.2987 4.0515
2 11.216 0.848519 9.67162
2 2.42349 10.3473 10.385
2 1.51727 1.27129 4.22806
2 12.2135 2.94753 11.3603
2 9.05632 11.8649 6.26406
2 12.5964 10.4775 10.8683
2 6.63735 3.58046 4.71249
2 2.4221 2.69457 10.73
2 1.51392 11.4839 4.10662
1 8.3806 8.55834 9.16163
1 6.01419 9.15012 0.470163
1 1.57681 5.13974 7.25823
1 6.91698 1.67255 1.61481
1 3.08262 7.59876 7.70274
1 7.90211 11.1248 2.33953
1 11.218 3.63793 7.26833
1 3.63667 1.24377 0.587834
1 0.273908 4.89718 4.07757
1 8.31945 1.9121 11.7968
1 9.04531 8.23384 6.40138
1 6.84656 10.7394 10.8155
1 9.78086 5.72904 5.25587
1 5.40737 0.935845 10.7815
1 1.34243 7.32433 5.10745
1 9.55398 11.4797 12.5613
1 9.27308 10.9472 5.03321
1 3.75875 9.95916 9.48818
1 0.920221 2.09711 2.76835
1 10.8599 2.62481 10.3634
1 1.4423 10.054 3.46751
1 11.0847 9.74803 10.3346
1 8.02545 3.07836 4.24805
1 3.06809 2.90566 9.2382
1 11.601 11.7794 2.8738
1 11.3738 12.3428 8.55717
1 3.34474 10.666 0.996357
1 2.08216 12.6072 8.50156
1 1.22733 11.2374 11.5681
1 2.13326 12.5439 5.14657
1 0.943436 1.7323 11.4715
1 9.20589 1.18239 6.40123
96
 Atoms. Timestep: 10000
2 11.0797 8.24263 4.97024
2 5.83118 12.0245 9.38384
2 10.9327 4.89777 4.35375
2 8.15298 0.730619 12.0612
2 0.884769 4.75915 8.71817
2 6.73194 0.247786 2.12155
2 7.5582 9.09634 9.02647
2 3.56403 0.518163 12.4337
2 8.42959 7.73839 6.68411
2 6.42943 9.25955 11.5808
2 1.34182 2.87788 6.35916
2 6.61917 2.23752 1.23668
2 1.92955 7.35325 5.6225
2 8.83714 10.6653 0.465597
2 10.7651 2.71302 6.16313
2 4.14439 2.03665 11.194
2 10.2237 6.00775 5.83267
2 7.33686 11.3075 10.7181
2 0.484168 6.66588 3.42601
2 6.45966 2.32261 11.6126
2 2.33812 5.85272 6.99585
2 4.3588 1.16461 1.98819
2 9.35771 1.52981 8.13607
2 7.61044 9.45181 1.45219
2 9.52878 10.2416 7.68262
2 6.53125 7.07208 0.802286
2 3.21587 3.70942 7.71674
2 6.59646 2.44831 4.22035
2 3.66143 8.01681 8.292
2 8.31822 11.0652 3.51287
2 11.8268 3.44497 11.4829
2 3.01984 2.63861 1.18032
2 0.807553 3.96452 2.79395
2 9.14481 3.07621 0.227637
2 9.36361 9.45938 4.68365
2 4.57154 10.1391 9.59
2 8.62905 4.23236 5.93894
2 4.90927 1.55358 8.74845
2 1.14846 9.17831 5.09756
2 9.2646 10.8579 9.77347
2 2.62792 10.1855 1.27315
2 1.5798 0.300263 6.32535
2 5.31844 9.09849 1.86103
2 11.4608 3.38747 8.9344
2 1.19894 12.094 12.6286
2 12.0566 11.2632 7.80038
2 3.02431 0.902175 7.84419
2 8.48637 2.20506 6.02943
2 0.959347 11.223 3.42101
2 10.7376 0.560875 9.37172
2 3.55595 9.41651 3.92099
2 3.26096 2.20644 6.26856
2 0.991558 1.10102 1.9479
2 2.60365 10.6095 7.92553
2 10.9326 11.2679 3.09651
2 9.57477 3.33598 10.4953
2 2.2404 9.30518 10.1491
2 1.8202 2.4737 3.66513
2 11.5162 1.86753 12.7385
2 10.0263 11.7982 5.6525
2 2.51589 9.67314 11.4624
2 6.19165 2.85199 6.92126
2 10.635 11.2738 11.7955
2 2.63431 11.8482 4.61774
1 8.29309 9.34829 7.62474
1 6.22428 8.76649 0.493983
1 1.8226 4.32771 7.29948
1 5.95897 1.70395 2.82746
1 3.25565 7.02831 6.56833
1 7.79339 10.993 1.76373
1 0.524962 4.07612 10.1856
1 4.31201 2.03314 0.439847
1 12.2548 5.19536 3.46051
1 7.71833 2.07646 12.5749
1 9.6128 7.62371 5.26925
1 6.19317 10.0469 10.1596
1 10.4516 4.16682 5.95675
1 5.19698 1.41388 10.1819
1 0.49622 7.69585 4.74544
1 9.00715 11.344 11.5012
1 9.79686 10.9963 4.27205
1 3.32595 9.30884 8.7554
1 1.68228 2.53347 2.03419
1 10.4182 3.39235 12.2247
1 2.324 10.436 4.44578
1 10.677 11.2616 8.60051
1 7.41006 3.13938 5.5882
1 4.70271 2.68595 7.37207
1 12.1024 11.8452 2.2558
1 10.0641 2.40793 9.25433
1 3.85792 9.4059 2.12404
1 1.74012 11.902 7.88492
1 2.52654 11.2766 12.6041
1 2.01002 1.51298 5.34755
1 11.5847 12.2021 0.252978
1 9.71858 1.23073 6.28175
96
 Atoms. Timestep: 12000
2 11.2936 7.4746 5.51492
2 7.27848 11.3035 9.23766
2 10.5777 5.61045 3.60861
2 8.74091 0.610741 12.0184
2 2.36926 4.63069 8.98995
2 5.82331 0.61412 1.41312
2 7.45701 8.20414 9.43421
2 3.24985 1.621 12.4143
2 9.27773 7.31421 7.59276
2 6.78016 8.75822 11.7226
2 3.90675 6.14955 9.93236
2 7.07708 2.8901 13.0178
2 2.40608 8.0157 5.91569
2 7.49462 11.3718 0.584344
2 10.3448 3.48052 5.5981
2 5.05724 11.7586 7.99145
2 9.24592 6.34058 5.80235
2 8.09582 10.3831 11.0008
2 0.683853 6.64144 3.62877
2 7.10606 1.30962 10.2756
2 3.30534 6.33382 7.80107
2 4.63167 2.54095 1.11185
2 10.1864 1.50772 7.42889
2 5.94184 10.0555 1.03199
2 10.3961 8.97827 9.53413
2 7.51662 7.74903 0.776938
2 4.30561 4.21562 6.97049
2 6.41991 2.40081 3.34966
2 4.0624 9.00369 8.26961
2 7.26016 10.4135 3.21247
2 0.414794 3.32726 11.1833
2 1.51549 2.79954 1.44901
2 0.448711 3.93502 2.94101
2 9.30633 2.89261 11.2531
2 8.57847 9.23738 5.12472
2 5.62198 9.71124 9.2136
2 8.29261 4.38453 3.93901
2 5.58371 2.14814 8.30721
2 0.0651568 9.24574 4.26181
2 10.0509 10.7788 10.7612
2 3.93284 11.4833 1.69933
2 0.273933 0.559929 7.41517
2 4.58945 8.36617 1.83633
2 0.571157 2.6186 8.71134
2 2.01795 11.1004 0.62231
2 0.0777616 10.3317 8.60479
2 12.2479 10.5929 11.0279
2 8.20478 2.58559 5.74603
2 11.5285 11.7135 4.0442
2 10.7812 11.9274 9.19834
2 2.13287 10.6855 3.21349
2 3.24784 1.58681 6.15828
2 11.1467 2.13812 3.25644
2 2.21948 10.8748 8.20374
2 9.32254 11.8731 3.70274
2 10.8141 1.71245 10.0251
2 4.41633 10.9003 10.4723
2 1.12956 2.3532 4.30622
2 0.273863 1.35054 12.1814
2 6.82919 11.0956 5.42415
2 3.51055 11.0582 11.5912
2 6.14936 2.95267 5.73005
2 10.2059 11.2383 1.16556
2 1.30555 11.0279 5.73305
1 8.93656 7.51404 9.18037
1 5.86244 8.47275 0.490912
1 4.21771 5.06035 8.51815
1 6.13194 2.10508 1.5408
1 2.80097 8.18635 7.51303
1 6.70135 11.1793 1.76335
1 1.44306 3.56093 9.75625
1 3.22888 3.08529 0.616827
1 11.9735 5.30071 2.65224
1 8.05293 1.96721 11.5521
1 9.64156 7.91018 5.708
1 6.93292 9.53095 10.1344
1 9.53923 5.05192 4.83603
1 6.44968 0.510539 8.6455
1 1.01477 7.48291 4.91142
1 9.04173 10.9226 12.3984
1 8.33484 10.7148 4.29473
1 4.06804 10.6427 8.73827
1 0.653691 2.50588 2.89544
1 10.9747 2.16555 11.6102
1 0.693999 10.6768 4.24637
1 11.0688 10.4689 9.61808
1 7.37233 2.87644 4.41618
1 5.00462 2.36401 6.89926
1 10.1977 1.03418 3.97943
1 11.4948 1.36234 8.5336
1 3.52076 9.96796 2.30303
1 0.718878 11.1615 7.18211
1 3.29928 12.1529 12.6709
1 1.99928 1.35008 5.12842
1 0.454877 11.5916 12.4284
1 9.64997 1.80666 6.06239
96
 Atoms. Timestep: 14000
2 11.6429 7.938 5.93176
2 6.30363 0.185325 10.3955
2 11.6028 4.55361 3.47264
2 8.18365 1.35912 12.3
2 0.963506 1.29834 12.3105
2 7.03767 0.388857 2.45842
2 7.2823 10.5875 8.34292
2 1.82583 0.842688 1.03169
2 9.02852 8.53395 6.61365
2 6.10712 9.82925 11.1667
2 1.29754 4.58821 9.60962
2 7.13957 2.5971 0.897038
2 1.88893 7.37138 7.02857
2 8.05512 11.6774 0.767173
2 11.0484 3.19615 5.30599
2 4.19328 0.503887 8.92169
2 10.4168 6.06254 5.50954
2 8.10522 11.4184 11.0502
2 0.461479 5.8558 5.49688
2 5.88388 2.07843 11.0407
2 2.6102 6.73096 8.78422
2 4.45543 1.37973 2.12596
2 10.7372 1.3562 6.66116
2 6.58929 9.91072 1.06227
2 10.2507 9.77561 7.70559
2 6.81376 7.80278 0.203023
2 2.86628 5.32742 7.18692
2 6.88712 2.40047 3.11188
2 3.63701 9.66065 7.6923
2 7.95013 10.6783 2.96984
2 11.5017 3.22535 10.5145
2 2.30504 0.770404 3.81861
2 1.3655 3.39277 3.53342
2 8.7374 3.20024 11.1699
2 9.47425 8.98389 4.67086
2 5.30336 11.0311 8.97232
2 8.59544 3.90602 4.55916
2 5.72655 2.85829 8.9196
2 1.19687 8.43557 4.65734
2 2.07655 2.30784 10.1755
2 2.20047 11.4131 0.860529
2 0.473781 0.963781 7.03253
2 4.1672 9.37007 13.1854
2 12.5086 0.86282 10.3304
2 11.8984 12.2003 12.4234
2 0.334429 10.8932 7.58859
2 11.4781 10.7601 9.97412
2 9.1707 1.97929 4.36369
2 0.943747 11.1855 3.12732
2 11.4603 12.1486 8.16279
2 2.9607 9.5135 2.65429
2 4.7898 4.24649 6.40151
2 12.328 1.09779 4.55424
2 2.3952 11.7702 8.04497
2 10.5626 10.7485 3.87677
2 11.4257 2.45474 8.44717
2 1.86644 9.78919 11.2856
2 2.24793 2.84617 5.87176
2 10.3538 1.28341 10.9463
2 8.08347 10.2768 5.85685
2 1.04875 10.5793 12.218
2 7.47687 2.7797 6.46753
2 9.87053 11.4145 12.0086
2 1.57881 11.1875 5.07847
1 8.47405 9.8643 7.62843
1 5.97919 9.17243 12.731
1 2.01758 5.34826 8.56554
1 6.18191 1.50262 1.96428
1 3.32028 7.79874 7.90408
1 6.72034 11.3365 1.79377
1 0.53053 2.12636 10.7894
1 2.75175 1.04206 2.24676
1 0.528203 4.73102 3.97903
1 7.07643 2.63617 12.1044
1 10.361 7.6361 5.30362
1 6.56541 11.2033 10.2009
1 10.2898 4.39007 4.43412
1 5.30041 1.33279 9.86535
1 0.73167 7.52605 6.05999
1 8.48341 12.2622 12.4826
1 8.92165 10.2801 4.2151
1 3.86344 11.6351 8.3492
1 1.55922 1.85993 4.69511
1 10.0464 2.76186 10.0259
1 1.65371 9.89661 3.97237
1 11.5437 10.5592 8.42102
1 7.78029 2.46783 4.74482
1 6.04717 3.19681 7.39267
1 12.1112 12.0158 3.25749
1 11.7016 1.12548 7.8952
1 3.06031 9.99851 1.0004
1 1.33918 11.9517 6.69804
1 1.09089 12.1814 12.9291
1 3.15533 4.32985 5.63453
1 11.1339 12.1802 10.8535
1 10.6449 1.69421 5.13579
96
 Atoms. Timestep: 16000
2 10.8478 7.20371 6.03312
2 5.61983 10.5356 10.9304
2 9.52479 4.42571 3.96237
2 9.55633 1.47417 13.0553
2 1.18831 1.7576 12.1999
2 6.99261 0.755957 1.65812
2 8.1287 9.44667 10.1791
2 2.92037 0.737397 1.27622
2 8.17244 8.15278 7.21199
2 6.68479 9.10461 12.7989
2 3.00824 6.66793 9.87118
2 7.81617 3.03998 1.49503
2 1.25229 7.50186 5.59259
2 10.7567 12.3748 1.49279
2 9.80088 3.441 5.78311
2 3.66471 10.7607 9.28595
2 8.90334 6.35986 5.95265
2 8.35155 11.4627 12.6862
2 11.5148 5.44031 3.86127
2 9.295 4.71531 0.37303
2 3.81138 7.10402 6.79879
2 5.03447 2.07979 2.74183
2 11.0357 1.85327 6.14384
2 6.28057 10.5488 1.73058
2 9.32 10.6682 8.43299
2 5.99823 8.7558 2.53216
2 2.76651 4.83279 7.76304
2 7.25939 2.44989 3.92578
2 2.3402 8.74018 4.40902
2 8.24241 11.0822 2.34269
2 11.7627 2.4478 10.8108
2 2.09368 1.21488 3.61749
2 12.2561 2.93672 4.21059
2 9.28383 3.30047 11.5273
2 9.0205 9.41841 4.70485
2 4.95816 11.5674 7.84701
2 7.52826 4.29584 5.76011
2 5.54343 0.353504 9.76235
2 0.475567 8.34333 3.54084
2 2.16259 3.13818 9.30044
2 2.85114 11.3243 12.6817
2 0.911918 0.443189 6.5468
2 3.94244 9.34911 13.0705
2 1.30318 8.99538 11.7648
2 1.23841 11.8682 11.4979
2 12.0746 10.9925 6.63191
2 11.9705 10.8135 9.52698
2 8.25327 1.54023 5.3221
2 0.734334 11.3832 2.69878
2 11.2637 0.163855 7.63123
2 2.13802 9.8516 1.91984
2 4.51968 2.00269 7.73204
2 11.1546 1.02553 3.59882
2 2.40179 11.5305 6.84648
2 10.5182 11.0437 3.28196
2 11.6442 2.26328 8.67833
2 3.72628 9.15312 6.72835
2 1.37713 2.51797 6.43908
2 10.9739 0.747635 10.0922
2 9.815 12.195 4.69999
2 3.50065 0.226165 11.113
2 6.25938 1.26139 6.2731
2 10.9825 11.3657 11.7944
2 1.52202 10.9838 4.6391
1 8.30687 9.41085 8.60359
1 5.37649 9.10859 0.719117
1 3.26842 6.36061 8.20531
1 6.48021 2.20775 2.53933
1 2.7498 8.31753 5.96327
1 7.3233 11.6473 1.03681
1 1.02813 2.5528 10.61
1 3.50551 1.32397 2.74281
1 11.1278 3.60355 3.54178
1 9.14247 2.93994 0.41296
1 9.10488 8.20472 5.97671
1 7.18178 10.2219 11.4589
1 8.98144 4.89116 5.46869
1 4.43128 11.4627 10.6216
1 12.1086 7.00692 4.67795
1 10.1193 12.2087 13.0367
1 8.97545 10.8986 3.82491
1 3.52512 10.6876 7.6882
1 1.21408 2.18973 4.70898
1 10.273 2.4509 10.0192
1 1.29572 9.84107 3.46239
1 10.9224 10.8528 8.25285
1 7.05613 2.7145 5.61218
1 5.49727 0.640279 8.002
1 11.8458 12.12 2.69126
1 12.2182 1.34142 7.22473
1 2.40078 9.94649 0.126933
1 0.958253 11.4176 6.00583
1 2.26255 0.425925 12.6128
1 2.64177 3.06479 7.63192
1 12.2199 11.9632 10.8174
1 9.78021 1.46088 4.96902
96
 Atoms. Timestep: 18000
2 10.6256 6.88062 5.31538
2 6.5883 10.873 11.1748
2 10.5895 4.52126 3.81684
2 8.04016 12.1867 12.7596
2 2.652 2.42589 11.3968
2 6.65917 1.9095 2.81219
2 7.74161 8.43768 10.3722
2 3.0646 2.07999 1.46476
2 8.49828 7.83428 7.09273
2 5.35645 8.83 11.646
2 0.863101 6.69506 7.88946
2 7.12994 2.83996 0.496513
2 2.50268 7.15064 4.23853
2 9.97266 11.4385 1.39245
2 7.58273 4.6403 2.89127
2 5.44593 10.6214 9.22686
2 8.37337 5.63745 5.10927
2 7.927 9.73129 12.5314
2 0.777612 6.06193 3.27374
2 6.30019 0.931708 11.5558
2 2.52496 6.96772 6.14931
2 5.00667 3.28918 1.64698
2 9.98833 0.964516 6.92668
2 2.73724 7.31354 1.27031
2 10.3883 8.6996 9.10846
2 3.37932 7.73444 11.2819
2 1.75864 4.19369 7.10666
2 5.76832 2.95237 5.62665
2 2.10704 9.80578 4.43985
2 7.82814 11.0448 3.10648
2 12.0875 3.81651 10.5783
2 5.33071 4.69395 4.06798
2 11.949 5.17287 5.67536
2 9.24884 2.36338 11.3244
2 8.08036 8.42071 4.61525
2 4.5196 11.9761 7.28469
2 8.39334 3.3344 4.92575
2 6.13384 0.714894 9.33176
2 2.56551 4.77437 2.70302
2 2.38056 3.48534 8.89984
2 3.54308 12.1315 0.911135
2 1.70111 1.78777 7.20284
2 3.47748 9.84146 0.84701
2 5.54014 11.1451 2.07951
2 1.19394 0.664393 12.6114
2 0.42272 11.0661 7.602
2 12.0175 10.1839 10.6476
2 8.5254 1.21769 5.03951
2 12.1693 10.7942 3.6097
2 10.2889 11.2583 9.03851
2 3.04059 11.5177 3.09537
2 4.24217 2.4658 7.97666
2 10.7094 12.1283 3.97815
2 2.68829 11.7449 8.00676
2 9.79333 9.87827 3.23337
2 10.3656 2.15668 9.5637
2 3.80544 9.45546 6.68089
2 3.42613 3.54514 6.11787
2 11.5267 1.15134 11.515
2 8.89747 11.2106 5.03036
2 3.76534 12.1429 10.8381
2 6.92993 1.65967 6.63084
2 10.1729 11.5049 11.6802
2 1.713 0.653751 5.02518
1 8.35466 8.40763 8.70092
1 4.10698 8.37955 12.7019
1 1.39692 5.70614 6.57313
1 6.71863 3.45279 2.01963
1 2.6832 8.57528 5.50715
1 6.91983 12.2069 2.31863
1 1.7098 3.54814 10.5624
1 3.36598 3.40678 2.22974
1 11.5767 5.67121 4.36287
1 7.64051 1.71728 11.9732
1 8.85363 7.27595 5.55057
1 6.9712 9.41387 11.4016
1 8.91572 4.66073 3.90685
1 5.39101 11.6741 10.645
1 2.34045 6.22417 2.79852
1 8.9792 10.9966 12.9179
1 8.52371 9.90338 4.28074
1 4.14435 10.5363 7.82912
1 4.63871 4.0099 5.32829
1 10.8383 2.67815 10.919
1 1.62522 11.4429 3.74211
1 11.5775 9.94371 8.80172
1 7.34585 2.43082 5.32946
1 5.65827 1.25576 7.64233
1 10.8614 10.933 2.67849
1 9.98651 0.792127 8.60736
1 3.89672 11.0396 1.84073
1 1.49651 12.153 6.93314
1 2.59886 1.11517 12.4184
1 2.76235 2.92535 7.53423
1 11.9035 11.5054 11.6389
1 9.9506 0.5574 5.3382
96
 Atoms. Timestep: 20000
2 9.92171 8.88307 5.28574
2 5.85786 10.2777 10.8829
2 10.9158 5.36554 3.64493
2 8.94395 11.7421 0.845463
2 1.79862 2.18443 10.95
2 6.37125 1.88088 2.63275
2 7.96582 8.26958 10.648
2 3.3526 2.21974 0.478328
2 8.3229 8.3227 7.3517
2 5.72598 8.27473 11.975
2 0.0414557 7.54076 7.91004
2 8.43569 2.08524 1.2812
2 3.32601 7.22328 3.269
2 9.538 9.86033 2.44385
2 8.75864 4.11889 3.07856
2 4.87643 11.2822 9.16455
2 9.48022 6.96596 4.58209
2 8.11943 9.63684 12.7305
2 1.74086 5.70621 3.05804
2 6.58913 0.95068 12.0037
2 2.72855 7.49921 6.15965
2 6.05861 3.67751 1.80552
2 11.3294 1.14198 5.63143
2 3.3692 7.34961 0.848223
2 10.0718 9.23481 8.82847
2 4.57947 6.46004 11.8822
2 1.51856 5.02559 7.73998
2 6.27379 4.7223 5.7658
2 2.01894 8.76027 4.62227
2 6.2443 10.6039 3.72328
2 10.975 2.554 10.0098
2 4.33131 6.51511 4.84504
2 0.860163 5.51616 5.8623
2 8.66249 1.07926 10.9955
2 7.12867 8.03057 5.25999
2 5.001 0.999806 7.3352
2 8.20701 4.3211 5.20004
2 5.84003 1.36053 9.86764
2 3.3754 4.71101 1.87377
2 1.19993 2.91655 8.54022
2 2.7559 11.7469 0.963573
2 1.87062 2.56635 6.44224
2 3.86258 9.52803 0.396387
2 4.83828 11.7679 1.98086
2 1.23324 11.641 11.8616
2 0.303784 0.531589 9.1067
2 0.204881 9.9816 10.0409
2 8.3481 2.44407 5.89481
2 11.4375 10.3285 3.72166
2 11.6548 10.57 7.49722
2 2.75979 10.6224 2.94537
2 3.72677 2.98808 8.74302
2 8.96836 11.4946 4.25571
2 3.16777 11.6752 6.47437
2 8.15659 9.83769 5.00884
2 10.0003 0.945728 8.09875
2 5.67339 10.2269 6.55727
2 3.59783 4.13245 6.53477
2 11.0244 0.542536 10.762
2 8.39648 1.76968 3.51752
2 4.07489 12.0355 11.6237
2 6.16768 2.88245 7.25651
2 10.88 10.056 12.2476
2 0.906074 11.7087 4.79
1 8.66322 8.52697 9.15943
1 4.06466 8.15997 12.116
1 1.21389 6.69175 6.95672
1 7.51473 3.18711 2.46169
1 3.61962 7.8474 5.0169
1 6.14331 12.3627 3.12463
1 0.742457 2.26211 9.87857
1 4.28547 3.31027 1.77811
1 0.693004 5.41022 4.36155
1 8.20012 0.999036 12.7125
1 8.57399 7.47195 5.92108
1 6.99691 9.1526 11.7098
1 9.4851 5.1688 4.50196
1 5.52982 11.8809 10.7518
1 2.8367 6.30595 1.93636
1 9.49629 10.2064 0.761901
1 6.66296 9.62519 5.06484
1 4.76465 11.2498 7.35745
1 4.72167 5.24611 5.74665
1 9.91133 1.36857 10.0372
1 1.22669 10.2143 3.85142
1 11.6031 9.10542 8.61585
1 7.21729 3.42102 6.11047
1 5.13704 2.067 8.63995
1 9.65971 10.0533 4.09742
1 11.5039 0.232258 7.51674
1 3.73708 10.6988 1.52964
1 1.99131 0.807906 5.9976
1 2.54053 0.902728 12.0334
1 2.57528 3.72626 7.59106
1 11.7739 11.0152 11.1596
1 9.41396 1.30933 4.69531
96
 Atoms. Timestep: 22000
2 9.74687 8.98827 5.95173
2 6.48375 11.0071 10.7404
2 9.95844 5.88553 4.04301
2 10.126 11.9789 0.441029
2 2.85793 2.28018 11.4007
2 8.18882 12.0993 1.14114
2 7.39319 8.48478 10.3668
2 3.95192 2.03268 0.889072
2 7.7652 7.49231 7.70989
2 4.75164 8.29895 11.4689
2 0.759622 7.58487 8.63627
2 9.40274 2.14074 1.91588
2 2.74933 5.95106 2.38308
2 10.7842 10.2498 3.25398
2 7.99373 4.45132 3.48803
2 3.03581 10.573 5.93908
2 8.02475 6.89202 5.12432
2 6.56195 10.1483 12.5652
2 11.8167 4.49245 5.9811
2 7.44262 0.855908 11.6959
2 1.34696 5.87982 3.99695
2 6.52044 2.50873 1.77626
2 8.92179 11.2676 6.88748
2 3.32317 6.87836 12.4158
2 9.74537 7.80243 9.47348
2 2.13998 9.07087 11.5744
2 1.0918 6.02411 6.94321
2 5.25353 3.55194 5.74714
2 2.67702 8.42728 3.87923
2 7.02633 11.1719 2.66937
2 0.824962 2.17816 10.0373
2 4.14077 6.29232 4.92167
2 1.82207 8.93104 6.1788
2 10.2002 2.00923 11.4669
2 6.70101 9.21131 5.06131
2 4.74515 1.81748 6.81665
2 7.61453 4.42392 5.58033
2 5.7494 1.82342 9.6711
2 4.69762 4.5714 0.705438
2 1.60006 4.03691 9.05072
2 2.64182 11.9677 1.53564
2 0.825513 2.80964 6.92392
2 3.43587 8.96045 1.47226
2 5.07745 11.5591 1.53577
2 2.68884 11.3007 11.8588
2 11.7146 0.386997 7.02851
2 0.354205 9.89438 9.82115
2 8.04665 1.62598 6.02331
2 0.524878 9.23961 4.586
2 10.6764 10.1819 7.87581
2 3.10518 10.4522 3.66683
2 3.39642 2.29433 8.92456
2 10.6539 11.7165 4.71114
2 2.80451 1.05545 6.05448
2 7.92536 11.0101 4.93614
2 10.3661 0.446853 9.46607
2 5.16525 10.8717 5.81773
2 2.98341 4.82632 7.18663
2 11.9062 11.8613 11.6647
2 8.29556 1.25665 3.58776
2 4.3274 0.682945 11.8329
2 6.41658 2.87322 7.63438
2 11.8835 10.0435 12.7513
2 1.19646 11.4989 5.39049
1 8.03399 7.64208 9.21849
1 3.44 8.42655 12.4141
1 1.57247 7.43959 7.1263
1 8.00358 2.63866 2.70178
1 2.86034 6.94564 3.92944
1 6.61427 11.3218 1.26398
1 2.21394 2.81866 9.89475
1 5.24009 2.91494 0.882073
1 11.5684 5.40008 4.65606
1 8.94283 1.198 12.4652
1 8.1525 8.21888 6.11132
1 6.23635 9.30695 11.0803
1 8.56935 5.42145 4.57017
1 5.89386 0.919032 10.8941
1 3.46052 5.59301 0.871679
1 11.3269 10.7423 1.62741
1 6.13132 10.7458 4.31484
1 4.29191 12.0083 6.52816
1 4.10222 4.8319 5.8944
1 11.5848 1.25021 10.5641
1 2.04304 9.85701 4.70523
1 11.0873 8.85889 8.91651
1 6.93531 2.87409 5.89945
1 4.95261 2.61379 8.37015
1 10.703 9.7999 4.95824
1 10.4686 11.8053 7.86264
1 3.67338 10.9366 2.21331
1 1.04724 1.21865 6.03637
1 2.74876 1.14349 12.5456
1 1.32544 4.44866 7.29468
1 1.21881 10.4726 11.2058
1 9.13783 0.405111 5.01067
96
 Atoms. Timestep: 24000
2 10.1929 8.24439 4.8118