LAMMPS data file via write_data, version 2 Aug 2023, timestep = 100000, units = metal

96 atoms
2 atom types
0 bonds
1 bond types

0.8044566745763193 11.785005994423221 xlo xhi
0.8044566745763193 11.785005994423221 ylo yhi
0.8448814210148683 12.377214243985172 zlo zhi

Masses

1 28.0855
2 15.9994

Atoms # full

37 1 2 -0.55 2.1688121809093994 3.4372325455631705 2.964667642620312 1 0 0
53 1 2 -0.55 3.667188266334787 1.2383922639817615 2.7417216763676864 0 0 0
12 1 2 -0.55 6.977115681271757 2.511593384786097 0.8951935471111766 0 0 0
62 1 2 -0.55 11.232786118130466 3.1725018965088947 2.4084007057926513 0 0 0
96 1 1 1.1 10.735920972111547 2.011431944125012 3.471601041306579 0 0 0
87 1 1 1.1 1.4735829435591343 3.945522355265953 1.4921958292423119 1 0 0
45 1 2 -0.55 1.1840503351526686 5.583791341230892 1.2128196067177142 0 -1 0
18 1 2 -0.55 6.7380346948447345 4.572173933759341 2.532331666405913 0 1 1
78 1 1 1.1 7.215982740576223 4.1289998799482355 1.003295520571945 0 0 1
63 1 2 -0.55 3.313217098065226 10.42680702686214 1.1201604818320996 0 -1 1
22 1 2 -0.55 5.801087951544646 11.655013470096439 2.39707318530711 0 -1 0
76 1 1 1.1 4.451124639782958 11.60534726387812 1.4185924706688633 0 0 1
24 1 2 -0.55 5.476647823635592 10.352187115169578 0.8953337924837095 0 0 0
5 1 2 -0.55 8.014441610586438 11.298021378378742 1.961496074939106 -1 -1 1
41 1 2 -0.55 9.14608610103852 9.152582682892227 1.9705744975884636 -1 0 0
81 1 1 1.1 9.05576546878115 10.465607011657887 2.963731778228117 0 0 0
60 1 2 -0.55 10.233041532223286 11.59544248930894 2.8296048270354968 0 0 0
83 1 1 1.1 3.327438136385488 2.523482570731832 3.715971784227592 0 0 0
58 1 2 -0.55 2.984233872400449 1.7171882669343117 5.1996341135364155 0 0 0
94 1 1 1.1 1.5217581401651699 1.9858744760063738 6.037249356792423 0 0 0
48 1 2 -0.55 0.8457860008556272 1.546310001860957 4.5961583766843 0 0 0
72 1 1 1.1 6.421091269324038 0.8736715545404793 3.8950404168944477 0 0 0
31 1 2 -0.55 6.7504815153212645 2.4472117810127063 4.0930679241843295 0 0 0
59 1 2 -0.55 9.672449534686194 2.6274452401816406 4.571542843824012 0 0 0
15 1 2 -0.55 11.317192689148907 3.0607398533701575 6.3557759860592 0 0 0
71 1 1 1.1 9.687949274628021 3.3011585705902426 6.121416329656912 0 0 0
3 1 2 -0.55 1.4069832300513956 5.366230357491397 5.32287574618816 0 0 0
73 1 1 1.1 2.4451952497706593 5.825213484309774 6.510938893603992 0 0 0
32 1 2 -0.55 4.537684051149538 3.632078161594306 3.829254398407832 0 0 0
84 1 1 1.1 6.140827488103294 3.963030986975495 3.938551588272584 0 0 0
33 1 2 -0.55 3.8619968620134353 5.024688594494657 6.520933465592879 0 0 0
16 1 2 -0.55 6.293920259461295 4.756000096076972 5.371515410656231 0 0 -1
77 1 1 1.1 10.927429889117018 5.691065776922886 4.66058859841201 0 0 0
23 1 2 -0.55 9.812041991948728 4.60639789000591 5.088669943223857 0 0 0
27 1 2 -0.55 2.665587596297236 7.360606273781248 6.026037402676765 0 0 0
17 1 2 -0.55 10.44073705929345 7.231603859644043 4.500400842723105 0 0 0
75 1 1 1.1 10.148966949126894 8.61876984352113 5.30119961971095 0 0 0
85 1 1 1.1 2.142544284190131 8.896633992333804 6.227023426995376 0 0 0
26 1 2 -0.55 3.0744940406547263 10.008358832558482 5.5038821111412535 0 0 0
8 1 2 -0.55 5.400312922299985 11.31253501235014 5.03370674806922 0 -1 0
66 1 1 1.1 3.928060644365477 11.376166489266584 5.736927820030119 0 0 0
30 1 2 -0.55 7.782192832068821 10.979402472499583 3.9204198077510335 0 0 0
1 1 2 -0.55 11.61265488587296 9.22033556560259 5.700304603156761 -1 0 0
35 1 2 -0.55 9.31483418677054 9.687972235883208 4.410312139197735 0 0 0
42 1 2 -0.55 1.606062498845241 1.3170149136919531 7.5294680570378025 0 0 0
92 1 1 1.1 1.338562894352496 1.7196457166036527 9.078759889204981 0 0 0
52 1 2 -0.55 0.943268348530014 3.3034805001416223 9.07214657393968 0 0 0
90 1 1 1.1 8.044510970739523 1.6540191304365357 8.260949276550093 0 0 0
46 1 2 -0.55 7.608086745828384 2.963772765526478 9.178555559062255 -1 0 0
50 1 2 -0.55 6.608393955503551 0.9774497807119747 7.905027306237584 0 1 0
56 1 2 -0.55 8.80470635541565 2.114319972332403 6.888163351959661 0 0 0
19 1 2 -0.55 1.8032445473249434 5.696923208554356 8.028739439400937 0 0 0
79 1 1 1.1 1.5991257996940653 4.7707584759339765 9.379280486662935 0 0 0
74 1 1 1.1 5.467798395752157 5.063550555649706 6.74538659225112 0 0 0
20 1 2 -0.55 6.099191202734979 4.969732447121036 8.268508477359163 0 0 0
34 1 2 -0.55 9.14112887755368 4.425960225396942 7.2241929283439665 0 0 0
69 1 1 1.1 9.398885649127116 5.005573268824192 8.723100674636452 -1 0 0
93 1 1 1.1 1.3053039540035416 8.87822308600709 9.25348097755256 0 0 0
9 1 2 -0.55 9.40500278446343 8.324077161224377 6.723966018761779 0 0 0
7 1 2 -0.55 9.443913934367782 6.6222896168794465 8.973711571660301 -1 0 0
65 1 1 1.1 9.648461028088661 8.103200559054788 8.30957902294557 0 0 0
39 1 2 -0.55 2.1286741872785733 9.046851763187998 7.8507005876359806 0 0 0
10 1 2 -0.55 4.184591174362055 11.20419391584629 7.350956638288062 0 0 0
82 1 1 1.1 5.3956629234178015 11.029519013764457 8.433813858909062 0 0 0
44 1 2 -0.55 8.78104358602866 11.35457872743191 9.000731426131466 0 -1 0
25 1 2 -0.55 10.636933861754969 9.229611393849709 9.072639825475207 0 0 0
54 1 2 -0.55 2.66772152761823 1.7914501021894849 10.030177913840706 0 1 0
49 1 2 -0.55 2.8689206916403385 3.5371132762743067 12.179406952441498 1 0 -1
89 1 1 1.1 3.6329478881617905 2.861839465293718 10.828267467987287 0 0 -1
36 1 2 -0.55 4.483072127180156 1.8209827094993445 11.826508079862943 0 1 0
29 1 2 -0.55 4.978028853277211 3.1372432718734773 9.861363615439936 0 1 0
68 1 1 1.1 7.7712595953782415 1.1074495501371122 12.082681577128822 0 0 -1
4 1 2 -0.55 9.122792750758581 1.794937863834749 11.423724128832106 0 0 0
67 1 1 1.1 9.895495818557858 3.25114193099942 11.325573727229596 -1 0 0
28 1 2 -0.55 11.41006989202587 3.2074375382687657 11.946231316718812 0 0 -1
64 1 2 -0.55 11.240394867122287 11.743351657286393 9.829504513300066 -1 0 0
11 1 2 -0.55 2.9734260457383295 4.2189303046810345 10.099709863461781 0 0 0
88 1 1 1.1 6.353055609159375 3.973001956068534 9.561995987435315 0 0 0
38 1 2 -0.55 8.817789085450816 4.103528948648964 12.224542617262818 0 0 0
2 1 2 -0.55 6.6022669094150555 4.589894917684744 11.078162864494027 0 0 0
13 1 2 -0.55 11.774886974397237 5.577921912880951 10.548088926953584 -1 0 0
21 1 2 -0.55 9.960472179489152 3.9358841439152963 9.818006683534842 -1 0 0
47 1 2 -0.55 2.0837072702804007 7.85387888773324 12.191926563529364 0 -1 0
51 1 2 -0.55 1.2516829440094817 7.475848790347461 10.128259928714133 0 0 -1
43 1 2 -0.55 4.659019773945102 8.784894780836478 11.368206268202888 0 -1 -1
14 1 2 -0.55 7.513042211333565 8.605356416251993 11.429062953309783 0 0 -1
80 1 1 1.1 9.103655172061462 8.646231800377873 11.947768758497535 0 0 0
91 1 1 1.1 0.8165746389668165 6.848311533585537 11.655836187845297 0 0 -1
55 1 2 -0.55 10.21163488509761 7.393357454762553 11.830967579664101 0 0 -1
95 1 1 1.1 3.076996576077331 9.110327544014577 11.725989770153033 0 -1 0
61 1 2 -0.55 2.2308930530905275 9.56891493902813 10.419264325309248 1 0 0
57 1 2 -0.55 5.66994119931095 9.859404612725516 9.53055410538819 0 0 0
70 1 1 1.1 6.151434023357196 9.540541984155784 11.106124346248617 0 0 -1
6 1 2 -0.55 6.9323300321367975 11.043600743132867 11.132096525648018 0 -1 -1
86 1 1 1.1 10.032956880049888 10.65510123667325 9.744931964011423 0 0 0
40 1 2 -0.55 9.640507871833641 10.009332366710762 11.186622380284454 0 0 0

Velocities

37 0.16154348190065412 0.22109499938982305 -0.9467827882077438
53 2.8527189333090335 0.18177511312392872 -0.3087657055651094
12 0.8846181139029184 0.39994548803589935 -0.043371059610852615
62 0.6331683101221277 0.9794144727697868 2.333197786226289
96 -0.052132625424466936 -0.8900115431374157 0.28560930066058915
87 0.19806388149145457 -0.5097934818349219 -0.7802694066788394
45 0.02674395296828374 -0.05148801547231768 -0.11196044006323462
18 -0.8198991585337865 -0.8001856904131279 0.3006538558189697
78 -0.8389045191327267 0.3579629247187053 -0.35641078495411976
63 1.088032398891467 -0.9918818466764303 -0.41180183130245823
22 -0.16860982632880603 -0.19060185821453804 0.9785630184059491
76 -0.8595998613741979 0.22270306170822854 -1.0343467407784022
24 -1.2454684769678666 -1.5906735460547248 -0.45222409437502725
5 -0.8065879273226215 -0.4494109780181844 -0.8361077696766777
41 1.0246270965138997 -1.0396204677461205 -0.31529597507551477
81 1.2797156222017105 0.8851919683358177 -1.0243985587777313
60 0.9772320025874839 -0.12468806298940915 0.5098512729395888
83 0.23789983502309647 0.4013882022810761 -2.0512912653506037
58 0.08320770356019583 -0.35223557560659735 -1.287636002379945
94 1.007381039667962 1.5324622840535223 -1.0702891012914468
48 -0.12789513493335525 0.1754858251241959 1.0282205590920381
72 0.8742061300141001 -0.37383159515198927 2.0702988443015387
31 -1.3629112318837668 -1.2320465407888808 0.28964737018017567
59 -1.6193511459249168 -0.6414501946311271 1.370199733628892
15 -0.4654836669098924 -0.6468965542346771 -0.9739427793779868
71 0.11853779954122512 0.034061258421056895 0.6749572634609303
3 0.9764622411855055 -1.7675658019830034 -0.6598957020817393
73 -1.451752385848122 0.8531398427299748 0.06643351059649952
32 -0.6483274489979075 0.4917054018904346 -0.6357699648683309
84 0.9219360624333532 0.7351006767495728 -0.036887241359765385
33 -0.22835679779320664 0.8707271894218271 -0.49986375905298863
16 -0.7162740436671468 0.6758577992158014 -1.1375229108547398
77 0.32700781408141805 0.3858423338246331 0.3606113434557905
23 0.31660554824245635 -0.6642442641207357 2.838324065999209
27 -1.0312020633884087 -0.11871593360052247 -1.628111701147748
17 -1.9817764613486788 1.3309655570715455 0.7910210149691242
75 1.326602425431356 0.5676539086573287 0.43436677357514486
85 -0.25921210547566564 -1.0598895956535033 0.10391310846637695
26 1.089688048229034 -2.853453063895367 -0.8192607163591131
8 0.5067633610423471 -0.4785671919035056 0.3371261599703721
66 -0.19823862430548028 -1.2819475678264924 -0.9020839257783633
30 -0.25052202549359937 1.4436447178262375 -0.2258402445193544
1 1.8658957791011723 -0.2188983709783812 0.364221682005797
35 -0.12347462329226201 -1.1731639011468344 -0.059127976288016595
42 1.2644161763376196 -0.5125401268571818 0.465391619700639
92 -0.8044644915023935 1.4985661688410958 0.46448864680016233
52 -0.5668489968271783 0.2795686822393511 0.5012984631228165
90 -0.6910059395296008 0.175186106580176 -0.05255097986739815
46 -0.9887980337786739 0.5642020402266695 -0.04333997591727228
50 0.8234184559077171 0.28909902723688174 1.013447988727449
56 -1.5160122926930562 -0.10541485453460302 -1.1105771517892755
19 0.6015407563558267 -0.009256541391187626 0.0805843237461126
79 -0.15912995325305587 -0.5825421433766217 -0.14385190457867694
74 0.7084294966918872 0.4407598923304283 -1.2198272511763675
20 1.1069653160731259 -0.021174804796060348 0.45062969800305386
34 -0.7293758249543065 -1.055001013659635 1.3414970539480295
69 0.11345992509762552 0.2445989392208197 0.8202390814798033
93 0.12888718969986077 0.5040347055594491 -0.4278566397847539
9 0.41618373440409856 0.7728518000832564 -0.295635487907683
7 0.43004563552722513 0.3109783451089167 -0.8411082183467061
65 0.34972930342137304 0.48404165581605496 -0.5008384933976319
39 -0.1446813993212867 0.3652381067277138 -0.8654880960844057
10 0.28754031178799966 -0.7524655515636995 -0.08466958297822988
82 -0.3247132166765787 0.4711845590009151 0.11202571529816281
44 0.858481277184569 0.182294003031979 -0.2466153977463114
25 -0.5902560061504115 1.4306461786295719 -0.5289481283958628
54 -0.10573074175645122 -2.0779651790298868 0.3725056117128611
49 -0.03868976053149714 -1.404853201174694 0.902351593956962
89 -0.06804182938996928 -0.8153263536431248 -1.1345617256080889
36 -0.5537781103137783 1.4326574428271244 0.2951486059390728
29 0.1336940923756703 -0.18200674523182017 -0.7105954362588595
68 -0.08403397880656838 0.12835746538051365 -0.7967267614393311
4 1.418815568449174 0.5091425233922232 0.35946952597884874
67 -0.5124528949588569 -0.007083239170828515 1.4767470379017038
28 -0.30871940108950097 -2.081270520897435 0.7793250291009338
64 0.5775533996740827 -0.23873831951996075 0.11747920427533483
11 -1.8071856690198262 1.090423047232553 -0.9083101094967987
88 -0.005417422003600118 -0.2648764073220635 1.0186244697848852
38 -0.9218430040078461 2.9473915422048615 -1.0636871275225392
2 0.236586641480549 -0.41581718423810543 1.5760660485655618
13 0.9203720913979475 0.40347976094715626 -0.01866957911928449
21 -0.3103246294653667 -0.18893948249476294 0.7935203936174217
47 1.1420414390034617 0.9612306877652672 0.5844224009467992
51 -0.39777131796431736 0.12379832774931111 1.5016878418611523
43 0.026724991218185508 -1.722568653829619 0.6016901530442741
14 -0.37295608528602603 -0.6807795495568865 -0.9817400779633663
80 -0.005390642390781159 0.11126133408757792 0.7173567832234461
91 -0.6797190392523907 -0.3510748894232038 0.6560151483459692
55 -0.6739985316523103 1.4531882849010447 -2.914553634765445
95 0.25562946677818715 1.2292617744288623 1.0378770092772847
61 -0.5591735708679697 0.13288634389909926 -0.4756410935639014
57 0.5266403553718464 -0.5769144612208177 -0.34199088155546
70 -1.298362049658223 -0.06055798986743812 0.8241460920864918
6 0.5821459171627338 -0.08368118631062256 0.4209163940197587
86 -0.25154906269980487 -1.2494534058041635 -0.25316728303779457
40 -0.43531058573411485 0.7761885830542068 0.6478560532376142
