96
 Atoms. Timestep: 0
2 0 7.95642 4.74695
2 4.63304 0 11.358
2 0 4.63304 4.74695
2 7.95642 0 11.358
2 0 4.63304 8.47514
2 7.95642 0 1.8641
2 0 7.95642 8.47514
2 4.63304 0 1.8641
2 10.7421 8.43088 6.61105
2 4.15858 10.7421 0
2 1.84736 4.15858 6.61105
2 8.43088 1.84736 0
2 1.84736 8.43088 6.61105
2 8.43088 10.7421 0
2 10.7421 4.15858 6.61105
2 4.15858 1.84736 0
2 10.5201 6.29473 5.04003
2 6.29473 10.5201 11.6511
2 2.06934 6.29473 5.04003
2 6.29473 2.06934 11.6511
2 2.06934 6.29473 8.18207
2 6.29473 2.06934 1.57102
2 10.5201 6.29473 8.18207
2 6.29473 10.5201 1.57102
2 10.1594 8.65935 9.20274
2 3.93011 10.1594 2.59169
2 2.43004 3.93011 9.20274
2 8.65935 2.43004 2.59169
2 2.43004 8.65935 9.20274
2 8.65935 10.1594 2.59169
2 10.1594 3.93011 9.20274
2 3.93011 2.43004 2.59169
2 2.43004 3.93011 4.01936
2 8.65935 2.43004 10.6304
2 10.1594 8.65935 4.01936
2 3.93011 10.1594 10.6304
2 10.1594 3.93011 4.01936
2 3.93011 2.43004 10.6304
2 2.43004 8.65935 4.01936
2 8.65935 10.1594 10.6304
2 0 10.703 0
2 1.88643 0 6.61105
2 0 1.88643 0
2 10.703 0 6.61105
2 0 0 1.872
2 0 0 8.48305
2 0 0 11.3501
2 0 0 4.73905
2 11.2706 2.31295 2.18973
2 10.2765 11.2706 8.80078
2 1.31887 10.2765 2.18973
2 2.31295 1.31887 8.80078
2 1.31887 2.31295 2.18973
2 2.31295 11.2706 8.80078
2 11.2706 10.2765 2.18973
2 10.2765 1.31887 8.80078
2 1.31887 10.2765 11.0324
2 2.31295 1.31887 4.42131
2 11.2706 2.31295 11.0324
2 10.2765 11.2706 4.42131
2 11.2706 10.2765 11.0324
2 10.2765 1.31887 4.42131
2 1.31887 2.31295 11.0324
2 2.31295 11.2706 4.42131
1 11.0086 7.83654 8.10972
1 4.75292 11.0086 1.49867
1 1.5809 4.75292 8.10972
1 7.83654 1.5809 1.49867
1 1.5809 7.83654 8.10972
1 7.83654 11.0086 1.49867
1 11.0086 4.75292 8.10972
1 4.75292 1.5809 1.49867
1 1.5809 4.75292 5.11238
1 7.83654 1.5809 11.7234
1 11.0086 7.83654 5.11238
1 4.75292 11.0086 11.7234
1 11.0086 4.75292 5.11238
1 4.75292 1.5809 11.7234
1 1.5809 7.83654 5.11238
1 7.83654 11.0086 11.7234
1 10.1088 10.1088 3.30552
1 2.48067 10.1088 9.91657
1 2.48067 2.48067 3.30552
1 10.1088 2.48067 9.91657
1 2.48067 10.1088 3.30552
1 10.1088 10.1088 9.91657
1 10.1088 2.48067 3.30552
1 2.48067 2.48067 9.91657
1 0 1.60471 1.57853
1 10.9848 0 8.18958
1 0 10.9848 1.57853
1 1.60471 0 8.18958
1 0 10.9848 11.6436
1 1.60471 0 5.03252
1 0 1.60471 11.6436
1 10.9848 0 5.03252
96
 Atoms. Timestep: 2000
2 1.32902 8.34543 3.7445
2 4.96376 13.0381 10.4516
2 12.2535 4.89711 5.1835
2 7.41007 -0.277322 11.5376
2 0.0640261 4.19957 8.75731
2 7.71974 12.9497 1.33728
2 11.9529 8.00116 8.61349
2 4.41845 -0.119735 0.00967521
2 9.87596 6.81589 7.72716
2 4.8068 10.6898 12.2855
2 1.55583 4.52989 6.616
2 7.82725 1.87287 13.1611
2 0.585473 8.21152 5.98731
2 8.24069 10.5783 -0.193262
2 10.5237 4.07777 7.16064
2 4.36353 2.1096 12.6805
2 9.63619 5.91093 6.59863
2 6.78964 10.6997 10.7933
2 1.84246 5.99916 4.80347
2 6.3724 2.12467 11.0474
2 1.38286 6.49679 8.06175
2 6.13035 1.70753 1.44056
2 11.3876 5.72889 9.0809
2 5.661 11.6879 1.42016
2 10.6066 8.44107 10.3718
2 3.67552 10.5663 1.57834
2 2.672 3.62031 8.44357
2 8.82054 1.99281 2.38062
2 1.50634 8.96734 9.09399
2 8.64444 10.4318 3.03065
2 10.8707 2.95566 8.86369
2 3.22015 1.8322 2.30073
2 1.83017 3.56002 4.30408
2 9.46064 1.39733 10.7338
2 11.3958 9.23067 3.35
2 5.09603 10.5779 9.36971
2 10.2422 3.37201 5.07004
2 3.59317 2.3901 10.1606
2 3.24687 9.37232 4.3197
2 9.21288 11.0005 10.9573
2 0.289031 11.0332 13.308
2 2.15147 -0.412012 6.75688
2 12.2379 1.90561 0.142897
2 11.0227 12.5263 7.31538
2 12.4104 0.168177 1.74941
2 0.313751 12.5212 9.31442
2 0.417715 0.342983 11.994
2 -0.0647511 12.1198 5.3366
2 10.9983 2.4666 2.86714
2 11.17 10.7922 9.17155
2 0.365529 10.8355 2.28084
2 1.65782 1.09831 8.4133
2 0.768207 1.47551 2.60821
2 2.27593 11.2852 9.47833
2 10.6643 11.4111 2.13684
2 11.326 0.366828 9.45637
2 0.747212 10.7783 10.6169
2 2.32208 0.756386 4.69607
2 11.3087 1.9907 11.4868
2 10.7696 11.3235 4.85117
2 11.7012 10.7577 11.5427
2 9.82146 0.69501 5.04652
2 0.858815 2.73259 11.0217
2 2.42667 11.5258 3.85451
1 10.5386 7.38892 9.10029
1 4.34779 11.2755 0.163668
1 1.39704 4.9417 8.12629
1 7.63948 1.62577 1.36456
1 0.589215 8.15172 7.68511
1 7.59601 11.1149 1.58153
1 11.4076 4.24647 8.51994
1 4.22913 1.42079 0.763724
1 0.944627 4.59043 5.15441
1 7.81533 1.54247 11.5282
1 0.125778 9.57239 3.51219
1 5.29516 11.4022 10.7234
1 10.6283 4.88144 5.70885
1 4.83364 1.47055 11.2451
1 2.1988 7.90731 5.04763
1 7.98218 11.1359 11.766
1 10.172 10.6744 3.33817
1 1.95603 9.85327 10.1635
1 1.95701 2.0345 3.6508
1 10.7615 1.83615 9.76535
1 3.56424 10.5258 3.24088
1 10.5946 10.0531 10.5241
1 9.66807 2.19354 4.01436
1 1.58411 2.3353 9.22199
1 12.2632 1.84098 1.72719
1 11.731 12.044 8.71009
1 12.2928 11.5709 1.14941
1 1.81274 12.4786 8.40135
1 0.201293 11.6831 11.7464
1 1.78102 12.2326 5.14265
1 -0.12266 2.0519 12.2012
1 11.1271 12.6185 5.78451
96
 Atoms. Timestep: 4000
2 12.104 6.91409 1.90952
2 4.93817 -0.202954 12.0433
2 12.3272 3.62408 4.44315
2 9.93855 0.628945 12.7463
2 12.5641 4.42125 9.07049
2 7.19358 12.6774 0.948626
2 11.8134 8.21056 8.94383
2 5.15036 12.2066 1.10151
2 10.6381 7.57179 6.55181
2 4.045 11.0231 13.4141
2 1.5948 4.79476 7.01512
2 7.93983 1.91001 13.2912
2 0.535083 7.9121 7.07375
2 8.60586 11.5145 0.14619
2 11.2389 4.2943 6.57758
2 4.59697 1.58147 13.0816
2 11.8668 6.37655 4.69486
2 6.72094 11.2341 11.5139
2 2.79314 3.22714 5.26275
2 7.25311 1.25664 11.2471
2 1.33442 6.63664 9.07173
2 6.19569 1.53239 1.37558
2 11.1338 6.21001 8.07849
2 6.01493 10.3766 1.8764
2 9.86337 9.1833 9.28312
2 3.45113 10.1883 2.68696
2 1.58504 4.04404 9.9197
2 8.83618 2.36039 2.47109
2 0.0818785 11.5941 9.35498
2 8.86951 10.9757 2.32358
2 10.869 3.48714 9.54652
2 3.2131 1.55033 1.66008
2 1.28714 3.26198 3.67772
2 9.51374 2.0902 10.8002
2 10.8608 9.35352 2.95337
2 3.2492 11.7374 11.4015
2 10.2447 3.6009 4.26973
2 4.50242 2.65391 10.7964
2 1.12816 8.4548 2.98685
2 9.05347 11.3671 11.1188
2 12.0549 11.4561 -0.0609757
2 1.26278 0.190306 6.39247
2 0.0778143 1.46682 13.4268
2 11.3654 -0.214363 6.982
2 12.3782 0.25074 1.32161
2 0.142925 0.509542 8.44203
2 0.664187 11.823 11.3381
2 -0.162941 12.2317 4.96623
2 11.2849 2.29301 2.05805
2 10.7142 11.7823 9.42837
2 0.0153982 9.91051 1.589
2 2.35006 2.22518 8.66169
2 0.953205 2.49037 1.86445
2 2.15318 12.3213 8.57174
2 10.9764 11.2539 2.18462
2 11.4569 0.608541 9.58645
2 1.17819 9.74947 9.43923
2 1.70322 0.325685 3.58339
2 11.9095 1.49109 11.85
2 11.0407 12.0064 4.21882
2 11.5163 10.5153 10.9393
2 11.2451 1.54856 4.52517
2 1.87336 1.68687 11.3867
2 2.53656 11.6009 5.79804
1 10.3466 7.7458 8.31931
1 4.41921 10.3508 1.12611
1 0.904944 5.00094 8.75136
1 7.72283 1.63198 1.15142
1 0.724764 8.15218 8.74214
1 7.58896 11.0743 1.37859
1 11.2859 4.61225 8.22292
1 4.80258 0.871458 1.09782
1 1.12664 3.78223 5.21838
1 8.66715 1.37144 12.0014
1 12.4956 8.49375 2.23786
1 4.99504 11.2531 11.7506
1 11.0142 5.02839 4.72928
1 5.50599 1.52146 11.5765
1 -0.0998323 6.8119 6.0359
1 8.16461 11.4595 12.3854
1 10.0356 10.8982 3.55853
1 1.86762 11.2928 10.0387
1 1.90333 1.84438 2.98402
1 11.0071 2.17758 10.3482
1 2.54432 9.0879 3.6545
1 10.1994 10.4542 10.155
1 10.3264 2.07059 3.3478
1 2.61879 2.55526 10.2916
1 12.7007 1.76864 1.08605
1 11.9314 12.4161 8.67488
1 12.45 11.6305 1.43718
1 1.50944 0.757946 7.73732
1 12.497 10.8367 12.2326
1 1.49704 12.5898 4.96853
1 0.268176 0.646535 11.6727
1 11.5224 0.355568 5.55386
96
 Atoms. Timestep: 6000
2 11.4549 8.30463 2.93678
2 4.8619 12.5874 11.0207
2 0.469723 5.77312 4.15181
2 8.6147 12.4105 11.7428
2 -0.13037 4.04335 8.35662
2 7.3841 3.42754 1.904
2 0.604235 6.97962 9.59698
2 5.46464 0.0876206 2.35695
2 11.6624 7.79998 7.54393
2 5.43349 10.6623 0.281947
2 1.41359 4.82676 6.47779
2 8.26453 1.69749 12.7572
2 -0.351279 9.86719 6.73705
2 7.93608 11.0796 0.176499
2 8.75799 3.97201 3.26717
2 4.67217 1.68482 13.2694
2 11.9081 7.32796 5.34191
2 6.51127 10.6062 11.9262
2 1.31785 2.32359 2.19132
2 6.33916 0.938531 11.2831
2 1.75928 5.19144 9.4031
2 6.76328 1.78587 0.859631
2 11.3323 6.0743 8.683
2 6.80749 10.4568 2.59912
2 10.6862 8.82911 10.1022
2 4.08312 11.1359 2.57072
2 2.10076 2.58238 8.82055
2 9.39157 3.06809 1.40952
2 10.2516 11.5621 6.32041
2 8.6296 11.1283 3.29847
2 10.2796 3.21778 8.5669
2 3.92755 1.82048 2.48094
2 2.41246 3.75143 3.77155
2 8.3986 1.54735 10.0814
2 10.2825 9.76465 5.55553
2 3.70892 9.99286 12.0678
2 11.5145 5.14078 2.58383
2 3.81303 1.99977 10.0727
2 3.50428 10.1148 5.3965
2 9.24288 10.1181 11.6889
2 11.685 12.1994 13.3145
2 1.17252 0.00297214 6.62939
2 0.679281 0.388474 1.05164
2 11.1053 1.16199 6.27113
2 9.47196 0.483296 1.05498
2 12.8083 12.1263 7.69641
2 0.750827 9.93152 12.9234
2 12.7645 0.752641 3.77527
2 11.4008 2.46283 2.07424
2 10.2168 11.3832 8.606
2 12.1598 11.2664 1.86938
2 2.48397 -0.345818 8.80857
2 11.6377 0.354889 1.70048
2 2.49995 10.641 7.66643
2 10.0199 10.4789 1.23631
2 11.3366 0.787676 9.18837
2 2.25794 7.43248 11.7306
2 2.074 0.858713 4.24139
2 3.0305 -0.186261 13.59
2 10.334 -0.178262 4.24761
2 11.6317 10.5668 11.2262
2 10.6909 2.47088 3.99416
2 1.33146 1.0788 11.1931
2 1.23201 11.3193 3.80995
1 11.6748 7.67477 9.11768
1 5.60432 11.3672 1.78345
1 1.43809 4.14903 8.00168
1 8.4267 1.85848 0.864125
1 1.94168 6.68883 10.2277
1 8.21901 10.3556 1.92513
1 11.29 4.51716 8.40617
1 5.2515 1.55788 1.56466
1 1.70669 4.90607 4.66852
1 7.81299 0.699334 11.501
1 12.1262 9.76122 2.28655
1 4.79878 11.1054 12.2445
1 12.2495 6.78095 3.36662
1 4.67315 1.46479 11.5593
1 11.5901 8.76172 6.22178
1 8.06232 11.0267 12.2245
1 9.59375 11.4185 4.44274
1 2.21709 8.97535 12.2643
1 2.67206 2.04617 3.25055
1 9.64302 1.69845 9.32956
1 2.96925 10.5836 3.95381
1 10.3786 10.4339 10.1329
1 10.3479 3.88544 2.66685
1 1.98454 1.29725 9.76427
1 12.9919 1.44037 2.10904
1 11.1453 12.7033 7.52524
1 10.6796 12.1371 1.0067
1 1.28836 11.896 7.86665
1 -0.221645 11.4469 12.3113
1 0.806155 -0.325101 4.61626
1 1.28026 0.280727 13.0051
1 11.2941 0.960021 4.50906
96
 Atoms. Timestep: 8000
2 0.156455 6.10838 2.57785
2 4.3947 11.7329 12.5867
2 2.50734 6.75175 4.93984
2 7.83378 12.0639 11.7095
2 0.699565 4.66799 7.33881
2 8.18472 2.28776 1.24091
2 12.0913 7.3534 10.2111
2 3.92773 0.356789 1.79868
2 11.9019 9.20916 7.85894
2 1.9615 1.67558 1.50968
2 2.73927 5.36658 7.13736
2 6.94153 0.394838 12.9832
2 12.5264 9.99166 4.77521
2 9.17049 11.3833 -0.09462
2 0.802058 7.90567 4.04208
2 3.52978 0.855238 -0.312184
2 0.80367 8.94001 6.54326
2 6.74662 10.1072 12.4943
2 1.92486 2.68029 3.88074
2 5.37368 0.278133 10.9356
2 0.855603 4.9201 9.81291
2 4.06841 3.65282 0.668928
2 11.4183 6.5925 7.92625
2 4.70105 10.9227 3.51233
2 9.74778 9.12952 9.88856
2 5.07915 10.856 0.857789
2 2.47857 2.8894 8.97805
2 9.89945 1.62172 2.75138
2 8.49815 11.0364 4.11174
2 11.0761 10.9881 1.82152
2 9.53469 3.27756 10.4469
2 4.11776 2.59364 2.47496
2 3.91212 4.47129 4.71811
2 7.71934 1.50079 10.2846
2 11.2905 8.28562 3.85126
2 4.23888 9.6031 11.864
2 10.227 0.974725 11.2141
2 2.63285 0.958438 10.4017
2 2.17769 9.7663 4.73108
2 9.31541 10.0833 11.8354
2 0.0628586 12.4394 11.5014
2 1.19734 12.8117 6.88746
2 12.2419 1.65632 12.71
2 9.06036 12.3778 6.43501
2 9.03714 -0.110882 1.51326
2 11.2906 12.4022 7.29348
2 1.51522 9.69561 11.3075
2 1.47499 0.46654 4.14695
2 12.0925 0.74074 2.69788
2 9.59016 11.5701 9.09291
2 11.9104 5.7329 5.43013
2 0.132848 0.958047 9.08176
2 10.8655 11.9442 11.6728
2 0.447181 11.5158 8.84948
2 11.1028 0.0616444 -0.00320506
2 9.80612 1.00318 8.51751
2 2.0414 7.69239 10.946
2 3.0468 1.8879 5.34229
2 0.800813 2.26606 10.993
2 10.7831 11.0787 4.6815
2 11.8459 10.2197 10.6048
2 9.56699 0.01646 4.44737
2 1.6986 3.18935 -0.039995
2 3.49911 12.51 5.39159
1 11.2096 8.29039 8.91657
1 5.02984 11.8516 2.11263
1 1.88097 4.19669 8.29944
1 7.87581 0.725995 0.680853
1 0.441183 6.3862 10.5034
1 10.3519 12.3716 1.27748
1 12.3126 5.5379 6.93521
1 3.25186 2.03528 0.942147
1 3.62603 5.67424 5.66092
1 6.99041 0.258875 11.4324
1 12.3236 6.89208 4.09748
1 5.14157 10.4021 12.9066
1 1.63292 8.08091 5.30459
1 3.9423 0.135224 11.8533
1 12.5393 9.90164 6.48646
1 8.14684 10.6632 12.651
1 11.2209 9.91972 3.50115
1 2.94678 9.04599 11.0515
1 3.62591 2.84989 4.01547
1 9.05424 2.21004 9.59599
1 3.42488 10.9287 4.6082
1 10.2003 10.6747 10.4971
1 10.9267 0.882463 3.76509
1 1.48041 1.70946 9.63362
1 0.994723 1.24225 2.70514
1 9.68288 12.5609 7.82582
1 11.4981 0.423808 12.0981
1 -0.147606 -0.165367 7.89236
1 0.386407 10.9183 10.5659
1 2.28677 0.439447 5.67145
1 0.70778 2.34318 12.8599
1 9.38654 11.5422 5.20792
96
 Atoms. Timestep: 10000
2 11.0733 5.23445 2.50484
2 4.60348 0.541084 11.5428
2 3.03178 5.95005 5.12352
2 7.29365 0.199831 11.5315
2 0.0100153 3.4906 7.12291
2 9.08853 2.91512 3.31257
2 -0.133643 6.15986 8.71684
2 2.32659 12.6503 1.04118
2 11.8525 7.3267 6.66587
2 0.826374 1.49735 1.6691
2 1.88138 4.11134 7.01849
2 8.25465 2.25972 0.288061
2 0.102057 9.66745 5.22646
2 9.61516 8.93023 1.92141
2 0.713059 5.17385 2.96888
2 3.7606 2.03949 0.520071
2 0.422274 7.42677 4.54139
2 6.25143 10.9631 11.3343
2 12.272 3.09687 3.11763
2 6.16404 2.32805 12.3004
2 1.58055 6.22279 7.60499
2 1.14059 1.82554 12.8162
2 10.9279 5.32405 7.55202
2 3.18367 10.0958 2.21616
2 10.7814 7.98745 9.15271
2 4.18464 10.9373 13.1573
2 2.10716 3.7384 9.25337
2 10.2872 3.36624 5.23306
2 8.25789 11.6563 5.98093
2 12.0437 10.2657 2.77367
2 0.829315 5.28287 0.0714503
2 5.11165 0.994712 7.74943
2 4.29287 3.26895 6.28357
2 8.8035 1.87404 11.1832
2 0.798083 11.8105 3.14556
2 4.1253 10.0778 11.1389
2 11.4249 2.74438 11.3678
2 3.32894 3.25208 11.8961
2 2.76057 8.15837 3.72125
2 8.94321 10.63 10.468
2 12.1328 11.8974 11.6993
2 1.53066 12.6622 6.83748
2 11.6345 1.41578 12.9865
2 10.3142 0.0186068 6.46324
2 6.7239 3.49374 1.35555
2 12.5068 0.428663 8.39248
2 1.75983 9.86615 11.2097
2 0.846461 0.721226 4.21479
2 11.3384 1.32872 3.43562
2 10.2866 10.9969 8.50624
2 12.0899 4.75861 5.01742
2 1.86116 1.73038 9.66506
2 10.2032 0.256102 11.9494
2 0.757483 12.2526 9.945
2 10.6771 11.5047 0.707532
2 10.1581 0.75636 9.1163
2 2.90153 8.17044 8.87248
2 3.40068 0.607128 5.914
2 0.688502 3.20558 11.3854
2 10.9196 11.3717 4.32573
2 11.8335 9.84267 10.0603
2 8.93982 0.851336 4.47308
2 12.7088 4.12855 -0.0089185
2 2.27817 11.4797 4.481
1 11.3853 6.88798 8.02095
1 3.02666 11.2272 0.913232
1 0.940259 4.55642 8.27484
1 8.50069 3.15861 1.49014
1 1.7481 7.92949 7.70928
1 10.8017 10.3002 1.73424
1 11.2015 4.32435 6.22492
1 2.06745 1.60118 0.70834
1 3.12818 4.55492 5.99141
1 7.5712 1.59851 12.5307
1 12.0852 4.59192 3.32143
1 4.66528 11.5759 11.7477
1 1.65357 6.55529 3.77208
1 4.51605 2.17705 12.408
1 0.110662 8.11781 5.82067
1 7.65936 11.4036 10.7652
1 12.6708 10.6608 4.12012
1 2.74299 9.39153 10.0272
1 4.28477 1.68623 6.44645
1 10.2386 1.60324 10.6577
1 2.71079 9.87237 3.88283
1 10.1784 9.74106 9.60243
1 10.1488 2.20111 4.25177
1 2.10642 2.95287 10.5725
1 -0.0291003 1.2763 3.11713
1 10.9257 12.5752 8.13984
1 11.2492 12.4584 12.9913
1 1.37596 0.175536 8.75379
1 0.424058 10.6499 11.0838
1 2.11016 0.216468 5.2202
1 12.4622 2.76246 12.4559
1 9.66976 12.1725 4.73855
96
 Atoms. Timestep: 12000
2 4.20384 7.27195 1.11225
2 2.59542 12.2363 11.198
2 5.13521 8.05403 6.13621
2 6.1977 11.7249 10.2143
2 -0.457658 5.78697 7.91061
2 4.2833 11.8251 2.43644
2 1.738 6.33558 9.18295
2 1.81704 12.2395 1.61769
2 12.0609 8.06333 5.74564
2 2.19802 2.74281 1.64428
2 3.22833 6.14578 7.40785
2 5.90689 12.1691 0.0255202
2 0.638903 10.8288 5.87942
2 11.6395 8.76301 1.74728
2 4.40365 7.91438 3.93588
2 2.7815 0.880044 13.1395
2 2.67943 8.78469 5.77177
2 3.95053 10.5471 10.7311
2 2.52723 5.8471 2.63329
2 4.69089 1.20609 10.4866
2 4.97927 7.77199 11.7536
2 12.7459 2.27702 0.188738
2 11.4162 5.73499 5.53886
2 12.445 11.2038 1.47996
2 10.1586 8.03955 7.36646
2 3.36506 10.1281 0.952187
2 1.64791 4.37577 8.80796
2 -0.0884703 3.82757 5.30124
2 8.79894 2.30838 5.33902
2 11.996 10.753 3.76916
2 12.6865 5.38455 11.7139
2 4.57122 5.74114 3.13009
2 5.6434 5.39736 6.02527
2 7.58543 0.369739 11.8869
2 2.25324 11.7435 4.23303
2 2.8521 8.89046 11.8701
2 9.0867 7.83268 12.5856
2 2.38059 2.57561 10.3135
2 4.45824 10.7031 5.01872
2 6.3937 8.45838 10.3237
2 11.3045 9.9877 12.2931
2 1.2293 9.6198 7.65805
2 10.3928 1.29792 12.3855
2 9.44602 0.86035 7.04657
2 5.27679 9.8878 12.5734
2 11.8291 11.6811 8.40817
2 1.18851 8.00671 11.2564
2 2.4677 3.25936 3.8536
2 0.976968 0.999404 5.73805
2 9.40106 10.4435 8.64165
2 0.502245 5.30854 2.48761
2 0.540292 2.40827 8.01197
2 9.44398 10.996 11.9569
2 11.7899 9.94075 10.3286
2 10.0982 10.0556 1.31671
2 9.574 12.8555 9.6937
2 2.92712 6.38985 11.9059
2 5.10328 3.56344 5.06536
2 12.7721 1.80331 10.7557
2 11.0189 -0.154137 4.92944
2 9.57593 9.04867 10.7535
2 11.5229 2.11037 4.69318
2 11.8294 4.04924 12.3131
2 3.95767 1.02792 4.69634
1 11.0771 7.02073 6.62306
1 1.89148 10.702 0.878092
1 1.61892 5.55137 7.73351
1 4.8632 11.0087 0.962334
1 3.75021 7.49513 12.6471
1 11.3791 10.3924 2.24158
1 11.7305 4.97091 4.10766
1 1.54602 1.42263 1.1872
1 4.96155 6.6521 7.13928
1 6.05932 0.6401 11.405
1 3.63497 6.90203 2.44124
1 2.42926 10.561 11.6656
1 4.28877 9.20728 5.11613
1 3.14919 1.45058 11.1908
1 1.20442 9.13248 5.86638
1 5.30268 9.62063 11.1349
1 0.43029 12.0615 4.64884
1 1.70383 6.45136 10.966
1 5.64279 5.05446 4.13265
1 9.1404 0.0917224 11.2825
1 3.92856 11.9627 4.02003
1 9.78525 8.92364 8.86248
1 0.369796 2.59904 6.38228
1 1.1925 2.79882 9.36368
1 2.01306 4.12094 2.40486
1 10.064 12.1974 8.42553
1 9.88655 9.54008 12.4724
1 12.5193 10.3213 8.88246
1 0.317101 9.33046 11.5067
1 3.34927 2.67194 5.07869
1 11.6513 2.55513 11.8457
1 9.8865 1.21592 5.66803
96
 Atoms. Timestep: 14000
2 3.86987 8.83259 1.92862
2 1.61282 10.8345 10.0114
2 5.00017 9.23227 7.32818
2 4.21826 11.0851 10.4937
2 1.12367 6.99881 8.54917
2 4.86107 11.5801 2.61067
2 2.18618 6.92791 10.9937
2 11.8449 0.776655 11.0787
2 1.53431 8.06862 6.7525
2 2.58005 4.63875 1.32031
2 3.94761 6.51851 7.86399
2 5.69689 12.0793 12.4951
2 0.590648 10.334 5.32334
2 9.83305 0.797813 1.13901
2 4.40964 8.57227 4.83598
2 3.00387 3.48828 11.8967
2 2.82575 9.86722 5.4726
2 4.01247 9.07712 9.93955
2 2.49847 6.75868 3.26309
2 4.65405 1.07639 10.7764
2 5.14862 8.71821 12.1098
2 1.56299 4.77999 12.5823
2 11.9322 5.53271 6.18178
2 12.056 12.238 0.0478377
2 9.22531 6.04938 9.43037
2 1.85953 -0.205124 11.3778
2 1.93984 4.76098 9.06717
2 11.6294 3.27826 5.72523
2 8.90413 12.2584 4.80593
2 11.9202 11.7224 2.64572
2 1.37862 1.93136 12.4899
2 4.73857 6.61494 3.93876
2 5.93811 6.65865 6.5899
2 7.0503 11.8066 10.2964
2 2.12966 11.2833 4.12899
2 2.79565 9.42151 12.1965
2 10.8411 8.23456 1.97558
2 2.72624 2.55463 9.33262
2 4.73775 11.381 5.32376
2 5.75584 7.64505 9.42549
2 11.2706 9.2727 12.1901
2 0.847574 10.8726 7.53031
2 9.9832 0.611516 8.88053
2 10.0823 10.5819 7.26406
2 4.39329 10.4697 0.782116
2 10.8397 10.5673 9.10459
2 0.616045 7.73004 12.4335
2 2.56595 4.5401 3.77062
2 0.213197 0.565785 5.24385
2 8.9851 8.23145 9.8293
2 0.31595 5.59835 4.02166
2 1.01914 1.92586 7.45232
2 1.29491 6.08892 1.10682
2 0.0218799 9.57268 9.67498
2 10.4457 10.5436 0.928168
2 8.30409 11.0524 8.58317
2 3.26473 7.33583 13.0062
2 4.69115 4.39978 4.9904
2 12.0147 2.85882 8.71381
2 10.9746 11.0002 4.82191
2 8.6658 6.60372 12.2166
2 11.2428 0.121959 6.57467
2 12.0369 -0.115076 9.2441
2 3.51748 1.56992 4.52859
1 0.556882 6.64034 6.96607
1 0.581277 0.602657 12.0119
1 2.44787 6.25768 9.30332
1 5.89339 11.5619 1.16786
1 4.09935 8.81273 0.270007
1 10.9599 11.9225 1.27993
1 11.6845 4.54401 4.88667
1 2.28581 3.16111 0.135338
1 5.30536 7.47606 7.98467
1 5.43016 12.1281 10.9801
1 3.90215 7.8531 3.18292
1 2.9067 10.1051 10.7872
1 4.5269 9.74515 5.74689
1 3.93009 2.55879 10.7229
1 1.73156 9.80304 6.6048
1 5.10789 8.10616 10.7585
1 0.0143248 11.615 4.12266
1 1.83547 6.486 12.7449
1 5.23905 5.90431 5.24871
1 8.32378 12.8602 9.21219
1 3.92081 12.4444 4.29398
1 8.47555 6.82767 10.5749
1 12.1818 1.6341 6.42419
1 1.33352 3.29743 8.6025
1 1.49784 5.30547 2.98582
1 9.14713 9.40675 8.77303
1 10.4829 8.91993 0.429658
1 12.6154 10.8368 8.89573
1 0.194789 9.13182 11.3912
1 3.62452 3.40864 4.35553
1 11.2008 1.54898 9.80678
1 10.1249 11.6795 5.95837
96
 Atoms. Timestep: 16000
2 8.01504 6.33811 8.32725
2 1.34714 10.8112 10.159
2 4.46849 7.18633 5.55562
2 3.64516 10.5612 10.7523
2 0.53733 7.04477 7.32981
2 5.84664 11.3438 2.37236
2 2.95429 5.14141 10.4637
2 11.3521 1.49917 12.0903
2 2.15461 8.24999 6.10561
2 1.40702 0.583914 8.21414
2 2.53644 5.72356 7.39989
2 5.22569 12.0684 12.1582
2 1.79107 11.0738 6.18016
2 9.05576 1.3654 4.58128
2 6.41673 7.44932 5.92981
2 1.80948 4.18961 0.965198
2 4.33523 9.61559 6.41449
2 4.07847 7.02879 10.782
2 8.77706 7.51328 5.85212
2 3.16398 0.753734 9.5067
2 5.3098 4.36352 10.7347
2 2.66215 4.04703 3.65958
2 1.01818 6.36414 5.31465
2 8.53693 10.6322 4.38002
2 7.10656 8.78287 4.54943
2 1.08295 10.9241 1.46351
2 0.982456 5.02981 9.5483
2 1.22722 4.15947 5.23028
2 7.32056 3.1252 5.30565
2 11.2772 11.9851 4.94805
2 1.01454 2.44475 1.62091
2 7.48498 5.60145 5.52917
2 5.16534 4.74415 6.17258
2 5.87137 0.565352 9.74238
2 3.03057 11.7705 4.70769
2 2.26825 8.58939 10.341
2 9.05388 9.33255 2.97888
2 1.3991 2.9352 9.38061
2 4.63567 9.73637 3.93071
2 5.13648 6.1505 8.35382
2 11.4697 8.89595 1.89127
2 1.97574 10.0822 8.29983
2 8.98774 1.36678 10.8265
2 7.96515 11.5508 6.61043
2 5.1337 9.52243 12.2995
2 10.8306 10.5136 7.82994
2 11.9942 6.04746 12.1839
2 4.32026 2.68751 2.05042
2 1.13373 2.08121 5.88703
2 8.79206 9.74817 6.15311
2 2.4358 6.66559 3.35278
2 11.2565 3.78486 7.66768
2 2.57076 6.18865 12.5256
2 12.0373 9.12236 11.8267
2 10.5518 11.7497 2.45673
2 8.63025 10.8986 9.02953
2 2.94435 8.50425 0.625132
2 6.16146 3.99917 3.62518
2 10.9234 2.97521 10.5402
2 1.48591 0.600485 3.00448
2 10.5434 8.35869 5.39932
2 10.3114 2.35398 6.62465
2 11.2147 12.1222 9.10274
2 5.43227 1.35797 3.67226
1 0.616176 7.78324 5.7128
1 11.8253 1.04945 1.54161
1 0.97778 6.27476 8.51092
1 6.01781 10.8167 0.786772
1 3.8235 8.6755 11.1429
1 9.94309 11.7216 4.04957
1 1.98692 5.61287 4.41265
1 2.65752 2.88836 2.15666
1 4.35466 6.11165 6.84605
1 4.53817 12.0734 10.6077
1 7.76673 6.64263 6.95038
1 1.1788 10.4728 11.6724
1 5.5804 8.74787 5.27195
1 2.25724 1.8687 8.48499
1 2.70996 9.76894 6.76992
1 4.25599 5.72016 10.1345
1 1.48903 0.771422 5.09987
1 1.53152 4.96604 11.7809
1 6.36552 4.55552 5.14503
1 7.64446 0.503875 9.82375
1 4.53394 11.5015 3.92763
1 9.01493 8.90322 4.68277
1 11.6583 3.27307 5.98642
1 11.8154 3.61408 9.31802
1 2.2496 7.39694 1.77572
1 8.98825 10.4746 7.56582
1 10.1631 10.1128 1.96552
1 0.517161 10.8483 8.5863
1 11.7958 7.71524 0.617997
1 5.73299 2.85202 2.79509
1 10.5955 1.48293 10.7803
1 8.37316 1.77634 6.03646
96
 Atoms. Timestep: 18000
2 7.92578 5.25434 10.2422
2 11.2013 10.3462 10.3238
2 10.1496 6.37906 8.26197
2 5.52555 9.70421 10.3388
2 1.9235 8.24453 8.21316
2 3.66373 10.9853 2.21702
2 3.13787 6.19154 10.8637
2 10.5115 2.50336 11.3363
2 11.6425 7.93633 6.23576
2 1.12954 11.1797 8.95181
2 5.04051 7.19721 6.81161
2 3.54839 11.8058 12.1466
2 1.55536 9.77733 5.16853
2 9.41187 0.867576 3.66132
2 7.64982 5.58738 7.60242
2 1.91282 4.29962 0.384936
2 2.93465 8.3502 6.13349
2 5.90517 6.66389 11.3003
2 9.46028 8.46822 6.35442
2 2.93494 0.285606 10.2162
2 6.42759 3.7674 10.176
2 1.0401 4.44938 2.49522
2 0.461182 7.59227 3.85243
2 8.7238 9.8979 4.40246
2 6.53979 8.83445 6.0445
2 9.94994 0.227359 12.716
2 1.84958 5.84216 8.26468
2 1.45464 4.45566 5.11985
2 8.33994 3.83569 4.42795
2 10.9714 10.7732 4.95117
2 12.1182 2.30905 1.15792
2 9.63414 3.87119 8.26521
2 5.96294 4.86307 5.84988
2 5.20977 0.743358 10.0598
2 2.34417 11.4924 3.98262
2 3.58917 8.02053 10.2373
2 11.8829 8.29528 1.10712
2 2.16872 2.60009 8.89997
2 4.46861 10.062 4.44704
2 5.25765 5.18269 8.8923
2 1.09267 7.87284 10.2932
2 12.3095 10.0609 7.35672
2 8.50405 2.73611 10.1203
2 9.06475 1.89613 5.65466
2 2.32135 9.3896 12.4505
2 9.81674 12.0155 7.13145
2 1.90924 7.1669 12.4528
2 3.17805 2.50435 2.26812
2 0.910323 1.61379 4.69597
2 8.18047 10.863 6.82022
2 2.87612 6.01342 3.69745
2 0.708105 3.52739 7.09926
2 3.85343 6.59668 1.66273
2 0.995418 11.4168 12.2674
2 10.9723 10.3809 2.68374
2 7.75805 1.77779 8.07787
2 4.33196 7.48604 4.37095
2 6.2022 3.07988 4.38309
2 11.3741 3.93376 9.72444
2 9.17966 2.55444 1.96275
2 9.84997 6.05527 5.34532
2 10.3501 3.05337 4.64448
2 10.5266 0.66838 9.6465
2 4.67998 1.16826 3.27296
1 10.2634 7.22068 6.76711
1 10.503 2.12875 0.718977
1 2.44192 7.09795 9.41485
1 2.40445 10.8401 0.863647
1 5.11771 8.05709 10.6137
1 10.0206 10.9782 3.70518
1 1.16205 5.82167 4.05388
1 1.74455 3.01167 1.5491
1 5.89568 5.77109 7.3027
1 4.26419 11.3315 10.7164
1 9.1611 5.23074 8.84484
1 11.1639 11.1155 11.8391
1 4.71405 8.52987 5.62779
1 1.60785 0.975709 9.6673
1 1.41399 8.81034 6.56954
1 6.39229 5.37869 10.4743
1 1.13674 11.3065 5.0465
1 2.66559 5.75942 12.6973
1 7.04583 3.69035 5.56778
1 6.99519 1.86812 9.77423
1 4.01581 11.4929 3.79062
1 8.06493 9.52387 5.81407
1 11.822 3.05539 5.46586
1 1.17999 3.99996 8.86051
1 4.38881 6.52855 3.17435
1 8.53143 0.971184 7.06201
1 11.7943 8.87914 2.55042
1 11.2382 11.0062 8.44894
1 1.16562 8.58481 11.7369
1 4.73225 2.84733 3.50176
1 10.2104 2.79173 9.88534
1 9.19286 2.4598 3.66348
96
 Atoms. Timestep: 20000
2 7.45436 5.92773 10.1554
2 10.2892 11.8696 10.4703
2 10.0822 7.08935 8.70722
2 4.97984 10.1182 9.22132
2 0.616229 10.5205 9.27528
2 2.10473 8.70111 10.9036
2 4.76797 4.5159 11.005
2 10.9133 3.5397 12.6395
2 11.8312 8.91785 7.34212
2 0.993237 0.914813 8.7851
2 6.29314 6.46919 5.70158
2 3.09923 11.0664 9.44569
2 1.70063 10.881 6.96467
2 9.76392 12.1231 4.33446
2 7.75955 5.96848 8.03375
2 2.74729 5.85368 11.6952
2 4.74401 7.89024 7.13178
2 5.21457 6.92348 9.28366
2 9.71052 9.12523 8.47586
2 3.5209 0.480012 7.75124
2 6.61006 3.90126 9.85978
2 0.893532 3.8152 2.33974
2 12.1375 6.49245 2.87261
2 9.40817 9.94041 5.92006
2 6.65491 8.76961 7.81178
2 9.74182 0.712578 0.671013
2 2.78831 5.39133 9.19299
2 0.416605 5.33495 4.76851
2 7.96296 2.93535 3.65195
2 0.387077 10.2019 5.135
2 12.1212 2.07315 1.67368
2 9.58363 4.86577 10.8527
2 6.75762 3.92349 5.85309
2 5.42827 1.11567 9.65482
2 3.22987 11.1543 4.05417
2 3.37373 7.60009 9.33237
2 11.7684 7.89182 0.785634
2 2.16361 3.27119 8.17421
2 5.41457 8.55648 4.10897
2 5.80405 5.32632 8.19414
2 0.628475 7.3363 10.9976
2 10.9249 11.3303 8.11056
2 2.57351 3.62937 1.22359
2 8.13851 1.58612 5.60944
2 0.614173 9.99258 11.581
2 9.34457 1.30939 8.33012
2 4.0017 5.74357 1.03286
2 3.14108 1.80134 3.00599
2 2.16678 0.704552 5.93697
2 7.78592 11.5118 7.27511
2 2.30708 6.32491 2.50159
2 0.757518 4.44777 6.89849
2 5.91288 5.30192 3.06286
2 10.1961 9.84788 11.9201
2 10.8487 9.50223 3.2081
2 7.12439 2.25404 8.17106
2 4.31767 6.55548 4.02776
2 5.09239 2.35612 3.96444
2 12.4838 4.30402 10.1584
2 10.031 2.11615 2.77389
2 12.1298 5.9707 8.24035
2 10.7505 3.2905 4.51778
2 11.2849 2.19214 10.492
2 5.26426 11.4473 2.70892
1 11.6767 7.50237 7.97112
1 10.3686 2.18536 1.19116
1 2.13208 6.80632 10.3268
1 1.85602 10.3099 10.1708
1 4.91891 8.60463 8.67652
1 10.7179 10.447 4.83234
1 1.29379 5.2661 3.11163
1 1.78793 2.38854 1.92165
1 6.77 5.45737 6.62134
1 4.35442 11.8021 8.96928
1 9.14757 5.78862 9.08148
1 9.49076 11.2436 12.2592
1 4.8987 7.17941 5.26458
1 2.1402 1.8239 7.49688
1 12.2184 10.5607 7.57762
1 5.84448 5.40327 9.86795
1 1.85164 11.2969 5.0723
1 3.6085 4.45324 12.4191
1 6.48684 3.63877 4.17591
1 6.23823 2.30167 9.38931
1 4.79805 10.1913 3.54243
1 8.20426 9.74405 7.35609
1 11.7873 4.23267 5.57376
1 1.2622 4.73068 8.56109
1 4.22356 6.0719 2.52381
1 8.15981 1.05982 7.30741
1 11.6326 8.18183 2.45181
1 10.8913 0.816298 9.03015
1 11.6849 8.81157 11.8488
1 4.74424 1.12915 2.85031
1 10.9103 3.81056 11.0035
1 9.41475 1.88297 4.27455
96
 Atoms. Timestep: 22000
2 6.66083 5.34261 10.4551
2 10.9257 11.3098 10.3407
2 8.9056 6.52179 8.45603
2 6.60509 10.3311 7.93071
2 1.59987 8.29753 8.65174
2 3.38993 7.11695 9.0748
2 3.88406 4.27988 11.5363
2 9.94186 4.02845 0.409266
2 11.6427 7.40766 7.72329
2 1.3383 0.570592 8.66954
2 3.9581 6.16423 8.23429
2 3.89038 9.79494 8.47971
2 1.62818 10.0168 6.4341
2 8.51702 6.95857 3.53875
2 6.73102 5.01001 8.20919
2 1.66618 5.84081 11.9003
2 5.77783 8.66721 5.99226
2 7.7744 9.41654 3.94977
2 11.1319 9.57305 6.28969
2 4.11534 0.607319 7.17046
2 6.51899 3.06337 9.89462
2 1.67963 4.28821 3.64627
2 1.3287 7.73196 4.21485
2 9.59324 9.71996 4.30878
2 8.07548 8.69862 6.33455
2 10.9511 1.76889 12.3736
2 0.594639 4.582 10.3001
2 11.6605 5.90292 5.30539
2 7.4189 3.44886 5.30723
2 11.5434 11.1381 4.47482
2 12.0401 3.594 1.92015
2 8.58808 5.78268 11.0858
2 5.52487 3.92649 6.50725
2 6.08622 12.0233 9.38678
2 2.08444 10.4894 4.25294
2 6.49837 7.59759 8.63307
2 1.62124 8.4074 1.03409
2 1.64004 2.7452 8.44355
2 4.7947 9.50367 3.85467
2 4.75037 4.36637 9.24726
2 0.617692 8.39561 11.2048
2 11.7713 9.70868 8.26547
2 2.78973 3.8777 1.2873
2 8.75462 1.61356 5.47736
2 2.43985 9.6178 10.928
2 10.5121 12.0354 7.63494
2 3.89771 6.23865 1.63931
2 2.43261 1.68952 3.26712
2 1.7575 0.62719 6.11624
2 8.94908 10.9413 6.2966
2 2.94589 5.94628 4.87608
2 12.1877 4.34451 7.44588
2 5.42109 4.89726 3.71257
2 0.954905 10.8598 12.0114
2 11.3097 9.16728 2.70438
2 8.36786 1.64017 8.2039
2 5.15129 7.12445 3.53742
2 4.78277 2.87145 4.27295
2 10.5449 3.68643 9.93337
2 9.0935 3.0554 3.06353
2 11.0115 6.17632 9.98486
2 9.54906 3.8821 6.0641
2 8.40835 3.14808 10.9068
2 3.67272 11.7102 3.09728
1 10.4893 6.44009 8.29496
1 10.3561 2.89304 1.64156
1 0.705841 6.40625 10.5438
1 2.84143 8.87211 9.57133
1 6.69004 8.81115 7.52725
1 10.5363 10.4143 3.35417
1 1.18472 6.08404 4.18196
1 1.67739 3.14432 2.63684
1 5.09473 4.84886 7.6757
1 5.18 11.1428 8.29743
1 7.55082 6.16373 9.29782
1 11.3982 12.01 11.9891
1 6.04006 8.60715 4.05992
1 2.44817 1.1794 7.39543
1 0.840873 8.89163 7.2988
1 5.48335 4.34189 10.6812
1 1.07564 11.1715 5.295
1 2.99893 5.4172 12.5627
1 5.89692 3.65982 4.85238
1 7.0633 1.49034 9.29607
1 3.44152 10.2312 3.39622
1 9.64228 9.42931 5.85104
1 10.9048 4.94575 6.29536
1 11.9937 3.68711 8.89208
1 4.0115 5.92245 3.53092
1 9.08362 0.685007 6.77587
1 0.919181 8.25163 2.69804
1 11.6219 11.378 8.54017
1 1.34138 9.41419 12.0659
1 4.09922 1.37458 3.34209
1 9.61235 4.28956 11.169