LAMMPS (2 Aug 2023 - Update 3)
units metal
boundary p p p
atom_style full
pair_style tersoff
neighbor 2.0 bin
neigh_modify delay 1




read_data SiO.data
Reading data file ...
  orthogonal box = (0 0 0) to (12.589463 12.589463 13.222096)
  1 by 1 by 1 MPI processor grid
WARNING: Atom style in data file atom-ID molecule-ID atom-type q x y z differs from currently defined atom style full (../read_data.cpp:621)
  reading atoms ...
  96 atoms
Finding 1-2 1-3 1-4 neighbors ...
  special bond factors lj:    0        0        0       
  special bond factors coul:  0        0        0       
     0 = max # of 1-2 neighbors
     0 = max # of 1-3 neighbors
     0 = max # of 1-4 neighbors
     1 = max # of special neighbors
  special bonds CPU = 0.000 seconds
  read_data CPU = 0.003 seconds
replicate 1 1 1
Replication is creating a 1x1x1 = 1 times larger system...
  orthogonal box = (0 0 0) to (12.589463 12.589463 13.222096)
  1 by 1 by 1 MPI processor grid
  96 atoms
Finding 1-2 1-3 1-4 neighbors ...
  special bond factors lj:    0        0        0       
  special bond factors coul:  0        0        0       
     0 = max # of 1-2 neighbors
     0 = max # of 1-3 neighbors
     0 = max # of 1-4 neighbors
     1 = max # of special neighbors
  special bonds CPU = 0.000 seconds
  replicate CPU = 0.001 seconds

pair_coeff * *  /root/Desktop/host/job1/SiO.tersoff Si O
Reading tersoff potential file /root/Desktop/host/job1/SiO.tersoff with DATE: 2010-08-16



group Si type 1
32 atoms in group Si
group O type 2
64 atoms in group O
#create_bonds many SiO SiO 1 0.5 10

dump dmp all xyz 2000 dump.lammpstrj



variable apot equal pe
# first number: number of steps to get current temp
# second number: calculate average n number of temp read above.
# third number: temp record (this must be larger than the one above )

variable atemp equal temp
fix temp_info all ave/time 10 200 2000 v_atemp file temperature.dat

#The cutoff used for pairwise computation (any pair style) and the
#associated neighbor list is the maximum cutoff that any compute
#can use. Atoms don't know any info about their neighbors
#further away than that.

# compute coord number
compute coor12 Si coord/atom cutoff 2.5 group O
compute coor11 Si coord/atom cutoff 2.5 group Si
compute coor22 O coord/atom cutoff 2.0 group O

compute sumcoor12 all reduce ave c_coor12
compute sumcoor11 all reduce ave c_coor11
compute sumcoor22 all reduce ave c_coor22


fix 12coord all ave/time  10 200 2000 c_sumcoor12 file Si-O_coord_number.dat
fix 11coord all ave/time  10 200 2000  c_sumcoor11 file Si-Si_coord_number.dat
fix 22coord all ave/time  10 200 2000  c_sumcoor22 file O-O_coord_number.dat




# unit cell information
variable avol equal vol
variable alx equal lx
variable aly equal ly
variable alz equal lz
fix cell_info all ave/time 10 200 2000 v_avol v_alx v_aly v_alz file cell_volume.dat


fix potential_info all ave/time 10 200 2000 v_apot file potential-energy.dat
thermo 1000



velocity all create 6000 193275 mom yes rot no dist gaussian
fix npt1 all npt temp 6000 5000 0.1 iso 0 0  1
timestep 0.001
#run 500
run 80000
Neighbor list info ...
  update: every = 1 steps, delay = 1 steps, check = yes
  max neighbors/atom: 2000, page size: 100000
  master list distance cutoff = 4.8
  ghost atom cutoff = 4.8
  binsize = 2.4, bins = 6 6 6
  4 neighbor lists, perpetual/occasional/extra = 1 3 0
  (1) pair tersoff, perpetual
      attributes: full, newton on
      pair build: full/bin
      stencil: full/bin/3d
      bin: standard
  (2) compute coord/atom, occasional, copy from (1)
      attributes: full, newton on
      pair build: copy
      stencil: none
      bin: none
  (3) compute coord/atom, occasional, copy from (1)
      attributes: full, newton on
      pair build: copy
      stencil: none
      bin: none
  (4) compute coord/atom, occasional, copy from (1)
      attributes: full, newton on
      pair build: copy
      stencil: none
      bin: none
Per MPI rank memory allocation (min/avg/max) = 6.021 | 6.021 | 6.021 Mbytes
   Step          Temp          E_pair         E_mol          TotEng         Press          Volume    
         0   6000          -638.06385      0             -564.38556      73800.118      2095.6304    
      1000   6483.0719     -569.67283      0             -490.06256      24938.828      2247.026     
      2000   6200.9272     -560.85635      0             -484.71074      23498.161      2282.4943    
      3000   5355.6731     -532.6431       0             -466.87697      4037.4798      2496.9127    
      4000   5484.0656     -540.30553      0             -472.96277     -8478.3005      2340.5415    
      5000   5884.6564     -541.95963      0             -469.69774     -26464.831      2257.1939    
      6000   5829.3441     -530.84961      0             -459.26693     -12594.188      2312.1065    
      7000   6255.7633     -531.48036      0             -454.66138      3284.9332      2258.4639    
      8000   5508.2261     -537.09084      0             -469.4514      -11894.752      2343.1276    
      9000   5332.6379     -536.9355       0             -471.45224     -16293.452      2291.6688    
     10000   6313.9388     -538.47671      0             -460.94335      23793.228      2215.6052    
     11000   5426.5258     -529.90667      0             -463.27049      23977.048      2084.4718    
     12000   4659.2724     -528.82958      0             -471.61505      14679.201      1968.3187    
     13000   5448.0637     -533.7381       0             -466.83744     -5457.0467      2161.3248    
     14000   5017.9231     -534.83278      0             -473.21413     -27737.106      2038.6148    
     15000   5382.6395     -525.70932      0             -459.61205      10992.747      1783.0501    
     16000   6902.8531     -538.04964      0             -453.28458      6231.8727      1649.7991    
     17000   5721.4766     -547.4463       0             -477.1882      -37511.182      1730.4847    
     18000   6068.8956     -540.21198      0             -465.68768     -45402.685      1664.2293    
     19000   5563.9087     -548.10716      0             -479.78395      13407.207      1500.9087    
     20000   5230.1222     -545.64919      0             -481.42479     -32306.254      1775.6242    
     21000   5481.3645     -540.15024      0             -472.84065     -39576.577      1784.6747    
     22000   5955.1966     -542.84653      0             -469.71842     -9087.0671      1724.318     
     23000   5445.7726     -522.85516      0             -455.98263     -22483.655      1879.1001    
     24000   5845.8297     -533.55378      0             -461.76866     -26202.929      2105.2726    
     25000   5394.2237     -536.86465      0             -470.62512      11311.935      1820.2386    
     26000   4842.5214     -538.00437      0             -478.53959     -15058.752      1814.82      
     27000   6910.9083     -540.35553      0             -455.49155      3780.2159      1681.5616    
     28000   5516.7467     -535.72016      0             -467.97609      12890.797      1775.1705    
     29000   5403.0474     -545.08916      0             -478.74129      7427.8738      1865.1995    
     30000   5372.1164     -531.42837      0             -465.46032     -25009.035      1667.0722    
     31000   5399.8052     -546.59451      0             -480.28644      22897.249      1718.7825    
     32000   6199.6019     -539.26282      0             -463.13349     -38291.111      1735.5547    
     33000   6068.4127     -537.87049      0             -463.35212     -1716.4702      1558.2788    
     34000   5730.7475     -542.40553      0             -472.03359      14270.938      1609.2308    
     35000   4989.0122     -534.13509      0             -472.87145     -33196.149      1466.0269    
     36000   5376.291      -557.12927      0             -491.10996      33148.189      1451.838     
     37000   6243.9478     -553.2734       0             -476.59951     -1662.3612      1519.4015    
     38000   5154.8695     -548.56991      0             -485.26959      15033.177      1525.8184    
     39000   4998.684      -539.13825      0             -477.75584     -18418.775      1593.7664    
     40000   5932.6919     -547.48926      0             -474.6375       34570.834      1443.3407    
     41000   5119.3764     -547.72601      0             -484.86153      33481.401      1485.6106    
     42000   5351.8665     -544.39324      0             -478.67385     -30968.613      1607.5983    
     43000   5226.4435     -547.31366      0             -483.13443      10746.43       1575.7427    
     44000   5307.7662     -540.96887      0             -475.79102      44160.12       1478.3958    
     45000   5165.752      -546.80061      0             -483.36665      53891.554      1492.2019    
     46000   4498.1943     -541.34179      0             -486.10525     -8414.5707      1566.3547    
     47000   5083.4379     -544.57927      0             -482.1561      -8614.3977      1438.0242    
     48000   5332.5329     -544.25144      0             -478.76946     -21258.267      1529.1791    
     49000   6074.8171     -547.78788      0             -473.19087      19999.833      1431.6984    
     50000   4938.3194     -544.13163      0             -483.49048      30378.327      1498.6964    
     51000   5244.4118     -545.78117      0             -481.38129     -24855.688      1574.1581    
     52000   4562.5341     -539.46266      0             -483.43604     -5159.3097      1533.7675    
     53000   5653.6303     -560.80311      0             -491.37815     -16138.386      1555.5035    
     54000   5938.8528     -569.32052      0             -496.39311     -20988.367      1683.2775    
     55000   5790.4391     -556.97307      0             -485.86813      32568.838      1590.8181    
     56000   5334.0432     -553.55429      0             -488.05376      33967.414      1563.992     
     57000   5344.9768     -562.82888      0             -497.19409      27096.161      1613.3738    
     58000   6038.8712     -548.10296      0             -473.94735      45300.936      1537.2853    
     59000   5639.2395     -551.66095      0             -482.41271     -262.19425      1542.6358    
     60000   4499.4991     -543.12022      0             -487.86766     -42443.743      1464.0382    
     61000   4950.8541     -547.8307       0             -487.03563     -2541.8969      1499.8357    
     62000   5292.9889     -553.66852      0             -488.67213      49410.205      1512.0188    
     63000   5422.4316     -557.61617      0             -491.03026     -23593.182      1536.986     
     64000   5704.4525     -560.24824      0             -490.1992      -33445.364      1480.7457    
     65000   5018.8581     -546.95074      0             -485.3206      -17721.828      1666.6446    
     66000   6051.996      -555.74937      0             -481.43259      22456.221      1554.9775    
     67000   5328.4526     -544.27078      0             -478.83891      26183.005      1454.5286    
     68000   5451.8721     -554.88062      0             -487.93319      61085.447      1647.0452    
     69000   4832.3342     -545.50131      0             -486.16163     -33740.956      1481.1487    
     70000   5458.5572     -544.47904      0             -477.44952      9641.2073      1495.0368    
     71000   4275.9617     -545.47008      0             -492.9625      -73457.789      1495.2213    
     72000   5197.752      -547.36316      0             -483.53626     -51762.978      1578.5204    
     73000   5533.9875     -556.66199      0             -488.7062       33754.503      1411.4065    
     74000   5390.6722     -548.81236      0             -482.61645     -37797.905      1570.2922    
     75000   5131.8297     -555.84124      0             -492.82384      30057.626      1501.1742    
     76000   4960.3357     -557.89936      0             -496.98786     -30202.262      1558.3863    
     77000   4763.0992     -559.57752      0             -501.08803      63538.513      1509.7693    
     78000   4682.1793     -550.37735      0             -492.88153      9650.2855      1636.5136    
     79000   5547.2417     -554.12501      0             -486.00647     -35050.452      1695.3572    
     80000   4694.3922     -554.94675      0             -497.30096      30400.918      1698.8143    
Loop time of 6.4344 on 1 procs for 80000 steps with 96 atoms

Performance: 1074.226 ns/day, 0.022 hours/ns, 12433.176 timesteps/s, 1.194 Matom-step/s
99.5% CPU use with 1 MPI tasks x no OpenMP threads

MPI task timing breakdown:
Section |  min time  |  avg time  |  max time  |%varavg| %total
---------------------------------------------------------------
Pair    | 5.3206     | 5.3206     | 5.3206     |   0.0 | 82.69
Bond    | 0.0027012  | 0.0027012  | 0.0027012  |   0.0 |  0.04
Neigh   | 0.44061    | 0.44061    | 0.44061    |   0.0 |  6.85
Comm    | 0.20391    | 0.20391    | 0.20391    |   0.0 |  3.17
Output  | 0.0088197  | 0.0088197  | 0.0088197  |   0.0 |  0.14
Modify  | 0.42352    | 0.42352    | 0.42352    |   0.0 |  6.58
Other   |            | 0.03428    |            |       |  0.53

Nlocal:             96 ave          96 max          96 min
Histogram: 1 0 0 0 0 0 0 0 0 0
Nghost:            462 ave         462 max         462 min
Histogram: 1 0 0 0 0 0 0 0 0 0
Neighs:              0 ave           0 max           0 min
Histogram: 1 0 0 0 0 0 0 0 0 0
FullNghs:         2446 ave        2446 max        2446 min
Histogram: 1 0 0 0 0 0 0 0 0 0

Total # of neighbors = 2446
Ave neighs/atom = 25.479167
Ave special neighs/atom = 0
Neighbor list builds = 3752
Dangerous builds = 0

fix npt1 all npt temp 5000 4000 0.1 iso 0 0 1
run 80000
Per MPI rank memory allocation (min/avg/max) = 8.549 | 8.549 | 8.549 Mbytes
   Step          Temp          E_pair         E_mol          TotEng         Press          Volume    
     80000   4694.3922     -554.94675      0             -497.30096      30400.918      1698.8143    
     81000   5109.5707     -561.90495      0             -499.16088     -1915.9239      1859.986     
     82000   5377.1776     -557.33877      0             -491.30857     -5866.6913      1828.4427    
     83000   4325.1469     -559.03596      0             -505.9244      -12292.752      1901.8118    
     84000   5991.1204     -547.8241       0             -474.25486      20041.86       1797.0671    
     85000   4702.7888     -559.16486      0             -501.41596      8094.6269      1738.8224    
     86000   5920.5526     -563.15226      0             -490.44957      25334.651      1874.7312    
     87000   4839.2052     -546.95642      0             -487.53237     -14915.285      1947.8872    
     88000   5179.4222     -557.73373      0             -494.13191      7354.5264      1748.1473    
     89000   5352.7975     -563.70401      0             -497.97319     -1757.8464      1750.3773    
     90000   4895.5582     -559.82959      0             -499.71354     -29319.56       1575.7963    
     91000   4086.6607     -560.99321      0             -510.81019      32113.139      1587.1995    
     92000   4970.9977     -562.8758       0             -501.83337     -21598.272      1577.2756    
     93000   4900.2052     -566.93503      0             -506.76191      25772.719      1572.4835    
     94000   4321.5514     -566.88045      0             -513.81303      49836.611      1540.5898    
     95000   4718.4305     -557.13124      0             -499.19026     -49.957461      1616.4162    
     96000   5334.5791     -557.71239      0             -492.20529      15301.975      1684.7699    
     97000   4912.8247     -552.93177      0             -492.60369     -4885.1993      1491.9458    
     98000   4657.8036     -551.71803      0             -494.52153     -17424.171      1476.6052    
     99000   4539.3813     -562.03899      0             -506.29668     -7350.061       1510.7999    
    100000   5057.8782     -560.953        0             -498.8437      -5638.9282      1500.7431    
    101000   4506.5881     -565.87431      0             -510.53469     -7199.7765      1490.9468    
    102000   4626.1592     -549.09031      0             -492.2824       49671.534      1397.5856    
    103000   4563.9706     -557.56089      0             -501.51664      19031.27       1427.7281    
    104000   4929.8262     -567.87768      0             -507.34083     -32070.719      1584.6445    
    105000   5357.4796     -560.67577      0             -494.88746     -9474.4993      1561.5122    
    106000   4989.865      -565.9405       0             -504.66638      29529.496      1428.5527    
    107000   4109.8484     -567.74595      0             -517.27818      18067.374      1567.1999    
    108000   4831.9584     -573.81604      0             -514.48098     -5279.5315      1476.7924    
    109000   4740.7327     -566.73943      0             -508.52459     -11970.876      1525.9342    
    110000   4963.6725     -558.52916      0             -497.57668     -37375.279      1609.4754    
    111000   5142.829      -568.33767      0             -505.1852       1192.7987      1448.652     
    112000   4306.8391     -565.0986       0             -512.21185      2325.7045      1438.4732    
    113000   4778.9172     -555.35853      0             -496.6748      -25351.45       1551.7827    
    114000   4890.4777     -565.12322      0             -505.06955     -61905.875      1483.5157    
    115000   4383.2993     -564.66096      0             -510.8353       4756.6789      1426.2889    
    116000   4459.7086     -565.42522      0             -510.66127     -4906.1783      1458.9909    
    117000   4398.1705     -565.90244      0             -511.89416     -28507.303      1459.5903    
    118000   5204.1606     -564.90797      0             -501.00237     -14109.228      1326.5636    
    119000   5045.1371     -562.4207       0             -500.46786     -49294.898      1385.26      
    120000   3951.8231     -561.04605      0             -512.51879      5057.82        1394.5062    
    121000   4972.7163     -560.21348      0             -499.14994     -12699.831      1418.7458    
    122000   4287.3684     -563.4066       0             -510.75894     -26354.512      1354.1279    
    123000   4193.1349     -569.24231      0             -517.75181      36377.006      1394.4008    
    124000   4813.8544     -575.34402      0             -516.23127     -7601.6215      1409.1077    
    125000   4924.6444     -575.72799      0             -515.25476      16637.62       1374.3302    
    126000   4347.7358     -575.58832      0             -522.19937      1131.242       1362.3521    
    127000   4776.3739     -564.50566      0             -505.85316     -32853.255      1412.5982    
    128000   4549.3692     -569.4236       0             -513.55865      8558.5922      1360.5129    
    129000   5407.2695     -571.12097      0             -504.72125     -43278.218      1499.5338    
    130000   4738.5305     -568.46151      0             -510.27371     -1936.2928      1470.7553    
    131000   4105.2614     -575.11403      0             -524.70259      15836.104      1432.2929    
    132000   3805.2751     -563.93276      0             -517.20507      29505.239      1443.673     
    133000   4041.3964     -572.71547      0             -523.08828     -59479.483      1502.4775    
    134000   4317.7141     -567.30847      0             -514.28818     -1927.1927      1489.7104    
    135000   4016.7555     -577.41646      0             -528.09185      793.14924      1426.4764    
    136000   3442.4311     -560.12026      0             -517.84819     -34361.39       1463.9492    
    137000   4433.3093     -562.66724      0             -508.22747     -26978.974      1571.5574    
    138000   4374.3207     -572.45122      0             -518.73582     -12105.075      1454.2517    
    139000   4312.6123     -571.91394      0             -518.9563      -37902.668      1514.231     
    140000   4883.4121     -573.3795       0             -513.4126      -12828.162      1500.1581    
    141000   3880.9864     -574.85373      0             -527.19633     -9184.8921      1369.1434    
    142000   4040.8917     -560.39         0             -510.76901     -2501.9455      1430.6443    
    143000   3954.1366     -573.71423      0             -525.15857     -46128.572      1426.8168    
    144000   5028.6988     -575.86591      0             -514.11492     -2701.6588      1405.6852    
    145000   4731.6538     -574.31316      0             -516.2098      -1703.3958      1427.5834    
    146000   4697.8971     -566.60386      0             -508.91503     -33317.734      1485.551     
    147000   4471.7996     -574.8946       0             -519.98218      9446.5338      1439.0357    
    148000   4042.0031     -573.61602      0             -523.98138     -21136.476      1439.9631    
    149000   4423.9516     -570.22937      0             -515.90451      51359.074      1427.9731    
    150000   3945.8282     -576.22415      0             -527.77051      1064.7548      1394.7673    
    151000   4006.0267     -571.2241       0             -522.03124      43412.538      1424.6633    
    152000   4604.7764     -574.74354      0             -518.1982      -5397.5618      1522.507     
    153000   3599.1235     -561.82223      0             -517.62602     -11789.602      1368.8952    
    154000   3494.5968     -570.82249      0             -527.90984      33619.691      1340.947     
    155000   3755.8115     -579.15946      0             -533.03917      44286.503      1341.4094    
    156000   4024.1556     -581.84766      0             -532.43218     -12380.397      1345.8219    
    157000   3334.484      -567.0269       0             -526.08039     -13403.135      1449.0399    
    158000   3675.4345     -570.45762      0             -525.32434     -40069.007      1490.0025    
    159000   3466.9075     -571.15174      0             -528.57911     -8238.8714      1412.5104    
    160000   3976.7        -574.78376      0             -525.95102     -18267.706      1417.8865    
Loop time of 6.44757 on 1 procs for 80000 steps with 96 atoms

Performance: 1072.032 ns/day, 0.022 hours/ns, 12407.782 timesteps/s, 1.191 Matom-step/s
98.9% CPU use with 1 MPI tasks x no OpenMP threads

MPI task timing breakdown:
Section |  min time  |  avg time  |  max time  |%varavg| %total
---------------------------------------------------------------
Pair    | 5.3351     | 5.3351     | 5.3351     |   0.0 | 82.75
Bond    | 0.0026919  | 0.0026919  | 0.0026919  |   0.0 |  0.04
Neigh   | 0.40808    | 0.40808    | 0.40808    |   0.0 |  6.33
Comm    | 0.20592    | 0.20592    | 0.20592    |   0.0 |  3.19
Output  | 0.01185    | 0.01185    | 0.01185    |   0.0 |  0.18
Modify  | 0.4507     | 0.4507     | 0.4507     |   0.0 |  6.99
Other   |            | 0.03322    |            |       |  0.52

Nlocal:             96 ave          96 max          96 min
Histogram: 1 0 0 0 0 0 0 0 0 0
Nghost:            534 ave         534 max         534 min
Histogram: 1 0 0 0 0 0 0 0 0 0
Neighs:              0 ave           0 max           0 min
Histogram: 1 0 0 0 0 0 0 0 0 0
FullNghs:         2910 ave        2910 max        2910 min
Histogram: 1 0 0 0 0 0 0 0 0 0

Total # of neighbors = 2910
Ave neighs/atom = 30.3125
Ave special neighs/atom = 0
Neighbor list builds = 3312
Dangerous builds = 0

fix npt1 all npt temp 4000 4000 0.1 iso 0 0 1
run 80000
Per MPI rank memory allocation (min/avg/max) = 8.549 | 8.549 | 8.549 Mbytes
   Step          Temp          E_pair         E_mol          TotEng         Press          Volume    
    160000   3976.7        -574.78376      0             -525.95102     -18267.706      1417.8865    
    161000   4475.8962     -578.77046      0             -523.80774      6531.1388      1350.5422    
    162000   4052.3356     -569.8852       0             -520.12368     -33761.077      1387.1842    
    163000   3395.8683     -570.52765      0             -528.82735     -53516.691      1437.402     
    164000   3743.1504     -573.22589      0             -527.26107     -9380.0998      1448.3047    
    165000   4463.3758     -569.88909      0             -515.08011      28880.427      1389.4379    
    166000   3966.8005     -575.95974      0             -527.24857      61767.344      1394.4857    
    167000   3949.0942     -571.37628      0             -522.88253      53997.487      1317.6535    
    168000   3971.9038     -578.14747      0             -529.37363      5668.1502      1255.99      
    169000   3841.5486     -578.48672      0             -531.3136      -18275.298      1322.0361    
    170000   4181.5883     -573.08474      0             -521.73604      16108.337      1354.5608    
    171000   3590.172      -583.16408      0             -539.0778      -8793.2326      1347.3272    
    172000   4123.3114     -576.20254      0             -525.56945     -8900.5173      1341.6621    
    173000   4550.1617     -569.11467      0             -513.23998     -35098.99       1434.1233    
    174000   4243.4025     -582.68884      0             -530.58107      33234.061      1416.0165    
    175000   4174.0478     -576.20559      0             -524.94948      15940          1339.1471    
    176000   3614.1325     -576.02458      0             -531.64407     -331.94907      1379.1984    
    177000   3714.5342     -579.6577       0             -534.04429     -11809.974      1370.7829    
    178000   3994.8548     -574.86404      0             -525.80837      16821.834      1321.449     
    179000   4403.8193     -579.44984      0             -525.3722      -18104.182      1366.731     
    180000   4013.8552     -569.32708      0             -520.03809     -2611.5776      1346.1552    
    181000   4238.0682     -585.21709      0             -533.17483     -27392.243      1372.1717    
    182000   4382.5576     -572.078        0             -518.26145     -26344.628      1384.4169    
    183000   4210.7731     -583.47845      0             -531.77137     -6837.6649      1397.8364    
    184000   3455.6133     -572.08828      0             -529.65433     -3873.5747      1424.0171    
    185000   4394.0672     -573.47045      0             -519.51256     -29194.274      1445.1626    
    186000   3765.7971     -576.41645      0             -530.17354     -42703.974      1365.7933    
    187000   3495.9687     -573.97118      0             -531.04169     -3446.6044      1382.8718    
    188000   4595.4383     -569.2081       0             -512.77744      7605.0713      1343.9152    
    189000   3377.7113     -571.36577      0             -529.88844     -21246.799      1383.9106    
    190000   3731.6942     -577.11307      0             -531.28894      22327.876      1317.2928    
    191000   3725.7378     -579.81575      0             -534.06476      14008.942      1316.9399    
    192000   4442.3382     -574.63124      0             -520.0806       16489.453      1381.163     
    193000   4187.3002     -575.94942      0             -524.53058     -1266.3202      1372.919     
    194000   3260.9077     -577.39974      0             -537.35673     -10589.112      1410.4223    
    195000   4091.4853     -575.83986      0             -525.59759      28574.32       1401.0607    
    196000   3453.7619     -582.50257      0             -540.09137      19495.31       1392.7557    
    197000   4465.6385     -579.9395       0             -525.10273     -3742.0782      1396.6919    
    198000   4787.8743     -574.74083      0             -515.94711      67125.971      1380.4748    
    199000   4298.4469     -580.24706      0             -527.46337     -10414.09       1355.1628    
    200000   3643.5676     -572.72468      0             -527.98272      76758.513      1357.6358    
    201000   4348.0297     -576.90295      0             -523.51039     -14647.387      1370.9947    
    202000   3796.7494     -565.11945      0             -518.49645     -12724.079      1368.6832    
    203000   3900.3503     -579.01774      0             -531.12256     -6005.8619      1303.0138    
    204000   4521.1953     -575.42304      0             -519.90405     -25121.41       1353.3715    
    205000   4200.3819     -568.23278      0             -516.65329     -31296.384      1282.1684    
    206000   3672.6342     -572.68265      0             -527.58375      70749.283      1234.3939    
    207000   3720.3514     -577.07609      0             -531.39124     -50600.968      1377.6922    
    208000   3855.9344     -569.81374      0             -522.46397     -18224.485      1359.0946    
    209000   4325.9382     -574.37253      0             -521.25125      20569.175      1424.3735    
    210000   4155.2374     -575.7263       0             -524.70118     -19357.238      1453.0641    
    211000   4285.5044     -573.67646      0             -521.0517       357.52327      1434.8292    
    212000   4071.4509     -575.64479      0             -525.64854      4726.8264      1383.253     
    213000   4080.4934     -567.20899      0             -517.1017      -50383.45       1347.8998    
    214000   3553.0606     -575.25026      0             -531.61969     -35923.981      1355.6898    
    215000   4486.7591     -572.42045      0             -517.32433     -39123.856      1412.6771    
    216000   4410.6085     -579.00105      0             -524.84004     -5523.7732      1339.4979    
    217000   3632.8685     -576.84852      0             -532.23794     -14110.888      1392.3107    
    218000   4630.4582     -569.86289      0             -513.00219      20862.943      1413.4197    
    219000   4542.9599     -574.57294      0             -518.7867       87951.596      1361.0383    
    220000   3327.7648     -570.23744      0             -529.37344      64416.173      1350.3135    
    221000   4344.3066     -572.81443      0             -519.46759      10001.686      1453.6603    
    222000   3892.3544     -576.5562       0             -528.7592       13064.109      1415.3294    
    223000   3922.6309     -565.53674      0             -517.36796     -8247.6769      1436.9398    
    224000   4097.3049     -578.55424      0             -528.2405       7667.2032      1471.1413    
    225000   4070.0145     -571.11587      0             -521.13726      38042.973      1480.0262    
    226000   4405.8018     -569.68999      0             -515.588       -17632.582      1490.8229    
    227000   3990.4592     -572.41024      0             -523.40854      12104.318      1447.4991    
    228000   3619.614      -574.32848      0             -529.88066     -757.83596      1508.9943    
    229000   4039.9415     -573.51722      0             -523.9079      -14497.286      1491.1587    
    230000   4148.1426     -573.20071      0             -522.26271      19173.139      1447.3671    
    231000   3980.3046     -579.74345      0             -530.86645      27737.476      1436.9418    
    232000   4145.9495     -579.3231       0             -528.41203      12054.454      1456.8786    
    233000   4130.9326     -579.48264      0             -528.75597     -24460.24       1460.2537    
    234000   3792.9247     -578.7042       0             -532.12817      15629.848      1511.0576    
    235000   3955.7894     -580.22659      0             -531.65063      3723.7127      1511.1872    
    236000   3722.2608     -562.72483      0             -517.01653     -17167.614      1518.9226    
    237000   3995.4219     -583.00361      0             -533.94098      3093.5351      1454.0163    
    238000   4130.6489     -575.24596      0             -524.52277     -19852.682      1530.4089    
    239000   3818.1777     -573.98388      0             -527.09775     -19228.369      1488.4144    
    240000   3882.7046     -570.04083      0             -522.36233      24549.524      1461.9917    
Loop time of 6.69477 on 1 procs for 80000 steps with 96 atoms

Performance: 1032.448 ns/day, 0.023 hours/ns, 11949.629 timesteps/s, 1.147 Matom-step/s
97.8% CPU use with 1 MPI tasks x no OpenMP threads

MPI task timing breakdown:
Section |  min time  |  avg time  |  max time  |%varavg| %total
---------------------------------------------------------------
Pair    | 5.494      | 5.494      | 5.494      |   0.0 | 82.06
Bond    | 0.0028715  | 0.0028715  | 0.0028715  |   0.0 |  0.04
Neigh   | 0.39117    | 0.39117    | 0.39117    |   0.0 |  5.84
Comm    | 0.21508    | 0.21508    | 0.21508    |   0.0 |  3.21
Output  | 0.012399   | 0.012399   | 0.012399   |   0.0 |  0.19
Modify  | 0.54326    | 0.54326    | 0.54326    |   0.0 |  8.11
Other   |            | 0.03601    |            |       |  0.54

Nlocal:             96 ave          96 max          96 min
Histogram: 1 0 0 0 0 0 0 0 0 0
Nghost:            520 ave         520 max         520 min
Histogram: 1 0 0 0 0 0 0 0 0 0
Neighs:              0 ave           0 max           0 min
Histogram: 1 0 0 0 0 0 0 0 0 0
FullNghs:         2804 ave        2804 max        2804 min
Histogram: 1 0 0 0 0 0 0 0 0 0

Total # of neighbors = 2804
Ave neighs/atom = 29.208333
Ave special neighs/atom = 0
Neighbor list builds = 3060
Dangerous builds = 0

fix npt1 all npt temp 4000 3000 0.1 iso 0 0  1
run 80000
Per MPI rank memory allocation (min/avg/max) = 8.549 | 8.549 | 8.549 Mbytes
   Step          Temp          E_pair         E_mol          TotEng         Press          Volume    
    240000   3882.7046     -570.04083      0             -522.36233      24549.524      1461.9917    
    241000   3675.6019     -574.68365      0             -529.54832      29829.277      1433.0787    
    242000   4319.8757     -571.30316      0             -518.25632     -36889.879      1442.2561    
    243000   4387.4441     -576.51604      0             -522.63949     -28972.268      1472.3662    
    244000   3470.5068     -577.82462      0             -535.20779     -47150.079      1443.5796    
    245000   3888.5668     -572.28995      0             -524.53946      15909.48       1433.8055    
    246000   4096.6685     -572.51557      0             -522.20966     -7941.4         1396.9215    
    247000   3751.9233     -575.60289      0             -529.53035      10282.817      1428.8203    
    248000   3789.9903     -566.29019      0             -519.75019      33535.813      1405.0872    
    249000   3726.29       -576.16038      0             -530.4026      -12999.539      1374.1112    
    250000   3942.8361     -577.84324      0             -529.42634      12749.276      1416.457     
    251000   4355.9762     -574.53499      0             -521.04485      19928.679      1302.2942    
    252000   4162.8204     -576.63064      0             -525.5124       20483.561      1324.4415    
    253000   3872.1404     -575.43086      0             -527.88208     -5535.9384      1359.9354    
    254000   3744.549      -579.61717      0             -533.63518     -69630.724      1383.1611    
    255000   3982.1526     -570.56377      0             -521.66408      17446.702      1394.8293    
    256000   4078.9313     -575.63786      0             -525.54975      82087.066      1371.8187    
    257000   4097.1273     -578.36379      0             -528.05224      63380.191      1319.6549    
    258000   4066.7619     -583.62894      0             -533.69027      13572.91       1382.96      
    259000   4074.88       -571.08361      0             -521.04525      42545.323      1390.2704    
    260000   4427.3308     -579.87992      0             -525.51357      72933.983      1292.2312    
    261000   3509.2126     -573.10479      0             -530.01266      37064.024      1339.2416    
    262000   4091.2975     -572.89899      0             -522.65903      23428.734      1395.6442    
    263000   3538.9067     -579.64606      0             -536.1893      -30728.598      1398.2515    
    264000   3903.4064     -573.69714      0             -525.76442     -10359.02       1400.8811    
    265000   3700.7757     -574.76917      0             -529.3247      -11961.945      1454.4094    
    266000   3612.2147     -573.59422      0             -529.23725     -62779.773      1432.0575    
    267000   4041.2699     -581.30286      0             -531.67722     -10923.551      1385.0705    
    268000   3422.5979     -588.66947      0             -546.64095      6611.211       1384.6331    
    269000   3141.6938     -575.50262      0             -536.92352     -38676.276      1351.4741    
    270000   3864.5294     -578.28433      0             -530.82902     -8044.7762      1396.8765    
    271000   3223.3228     -581.80982      0             -542.22834     -24425.22       1416.2314    
    272000   3909.0073     -580.17709      0             -532.1756       11338.287      1404.1444    
    273000   3482.1459     -584.62882      0             -541.86907     -16023.678      1422.3374    
    274000   4241.9877     -572.68923      0             -520.59883      18307.998      1407.5862    
    275000   3258.6684     -577.83563      0             -537.82011     -36470.57       1411.5991    
    276000   3798.7709     -581.45003      0             -534.80221     -15788.33       1385.7453    
    277000   3354.7342     -582.76237      0             -541.56719      10880.42       1367.2805    
    278000   3437.3314     -586.35628      0             -544.14683     -20552.177      1384.0543    
    279000   3507.0628     -580.14594      0             -537.08021     -55033.565      1436.972     
    280000   4140.1697     -582.2296       0             -531.3895      -15771.621      1392.8134    
    281000   3618.5102     -588.40429      0             -543.97002     -21894.689      1363.961     
    282000   3696.7087     -576.01724      0             -530.62271      37202.105      1325.7712    
    283000   3056.1041     -583.03398      0             -545.5059       10802.74       1332.0945    
    284000   3374.6054     -584.82269      0             -543.3835       29748.746      1333.5592    
    285000   3595.3786     -578.87488      0             -534.72466      18598.107      1306.3487    
    286000   3425.158      -585.51969      0             -543.45973     -3481.1726      1320.1926    
    287000   3157.2266     -586.86209      0             -548.09225      32042.063      1272.7381    
    288000   3618.1827     -584.958        0             -540.52775     -7791.972       1294.5528    
    289000   3192.6234     -584.73031      0             -545.52581     -15216.522      1323.5195    
    290000   3082.4815     -581.55769      0             -543.7057      -5860.9126      1449.1505    
    291000   3665.7093     -584.1571       0             -539.14324      15840.012      1393.7506    
    292000   3677.23       -587.54429      0             -542.38896      7668.5379      1371.3972    
    293000   3131.7662     -583.58728      0             -545.13009     -3990.1457      1378.4045    
    294000   3858.7614     -582.29911      0             -534.91463     -14106.338      1375.8228    
    295000   3453.9881     -588.28676      0             -545.87278     -12959.802      1347.537     
    296000   3141.558      -588.65906      0             -550.08163      46345.29       1350.8167    
    297000   4024.4058     -587.4521       0             -538.03355      54583.257      1344.6659    
    298000   3042.5829     -582.85912      0             -545.49707     -39938.647      1406.5906    
    299000   3461.4124     -587.74636      0             -545.2412      -33934.185      1379.3511    
    300000   3167.7472     -583.92816      0             -545.02913      17078.528      1389.7656    
    301000   3066.6447     -591.2332       0             -553.57568     -22852.161      1470.3855    
    302000   3625.5592     -592.62657      0             -548.10574     -4023.7419      1414.1823    
    303000   4126.2326     -591.05606      0             -540.38711     -1082.307       1380.6416    
    304000   3024.2151     -589.02001      0             -551.88352     -15193.592      1416.0845    
    305000   3608.6831     -585.59976      0             -541.28617     -35402.488      1437.1109    
    306000   3659.217      -591.4338       0             -546.49966      1514.3541      1427.9084    
    307000   3407.5301     -584.1344       0             -542.2909      -30405.749      1441.5292    
    308000   3471.3165     -590.7762       0             -548.14943      636.61315      1354.2402    
    309000   3018.9347     -594.72438      0             -557.65272     -4235.37        1333.2827    
    310000   3221.6279     -593.57331      0             -554.01264      78383.665      1325.755     
    311000   2640.3804     -586.9894       0             -554.56628      20195.819      1328.2994    
    312000   3312.4646     -586.19037      0             -545.51425      50621.324      1340.044     
    313000   2959.8131     -592.11361      0             -555.76795     -16609.843      1366.9792    
    314000   3407.7984     -589.62328      0             -547.77649     -27050.499      1395.3166    
    315000   3492.0214     -595.55444      0             -552.67342     -911.96235      1407.7324    
    316000   2953.1857     -592.29932      0             -556.03504      20447.073      1377.7235    
    317000   3346.2511     -585.74615      0             -544.65515     -5588.3266      1403.0458    
    318000   3022.1082     -589.09974      0             -551.98912     -14225.383      1431.7497    
    319000   2851.1539     -591.37191      0             -556.36055     -1885.2885      1412.258     
    320000   3017.9126     -587.71141      0             -550.6523      -8899.7949      1362.149     
Loop time of 6.46884 on 1 procs for 80000 steps with 96 atoms

Performance: 1068.506 ns/day, 0.022 hours/ns, 12366.973 timesteps/s, 1.187 Matom-step/s
99.3% CPU use with 1 MPI tasks x no OpenMP threads

MPI task timing breakdown:
Section |  min time  |  avg time  |  max time  |%varavg| %total
---------------------------------------------------------------
Pair    | 5.4166     | 5.4166     | 5.4166     |   0.0 | 83.73
Bond    | 0.0027154  | 0.0027154  | 0.0027154  |   0.0 |  0.04
Neigh   | 0.35588    | 0.35588    | 0.35588    |   0.0 |  5.50
Comm    | 0.21117    | 0.21117    | 0.21117    |   0.0 |  3.26
Output  | 0.009475   | 0.009475   | 0.009475   |   0.0 |  0.15
Modify  | 0.44077    | 0.44077    | 0.44077    |   0.0 |  6.81
Other   |            | 0.03225    |            |       |  0.50

Nlocal:             96 ave          96 max          96 min
Histogram: 1 0 0 0 0 0 0 0 0 0
Nghost:            542 ave         542 max         542 min
Histogram: 1 0 0 0 0 0 0 0 0 0
Neighs:              0 ave           0 max           0 min
Histogram: 1 0 0 0 0 0 0 0 0 0
FullNghs:         3120 ave        3120 max        3120 min
Histogram: 1 0 0 0 0 0 0 0 0 0

Total # of neighbors = 3120
Ave neighs/atom = 32.5
Ave special neighs/atom = 0
Neighbor list builds = 2801
Dangerous builds = 0

fix npt1 all npt temp 3000 3000 0.1 iso 0 0 1
run 80000
Per MPI rank memory allocation (min/avg/max) = 8.549 | 8.549 | 8.549 Mbytes
   Step          Temp          E_pair         E_mol          TotEng         Press          Volume    
    320000   3017.9126     -587.71141      0             -550.6523      -8899.7949      1362.149     
    321000   2886.2096     -594.49876      0             -559.05693     -23836.315      1388.5225    
    322000   3374.931      -590.23437      0             -548.79118      20371.381      1411.6971    
    323000   3037.9483     -590.95237      0             -553.64723     -27465.273      1444.6737    
    324000   2865.2645     -589.47433      0             -554.2897      -43889.837      1378.4556    
    325000   2914.6689     -590.30139      0             -554.51009      19343.314      1377.6997    
    326000   2999.531      -594.64855      0             -557.81517     -6326.2106      1375.4446    
    327000   3073.7528     -589.27139      0             -551.52658      2478.0121      1379.2121    
    328000   2591.4905     -590.41741      0             -558.59464     -12631.007      1375.6942    
    329000   3096.478      -593.05609      0             -555.03223     -4139.5308      1371.1804    
    330000   3064.4414     -594.42817      0             -556.7977       911.00842      1366.799     
    331000   2803.9248     -587.75618      0             -553.32479      17596.884      1406.9037    
    332000   3201.589      -590.64093      0             -551.32633      10137.07       1449.9271    
    333000   3059.6792     -594.04059      0             -556.46861      54753.237      1386.6156    
    334000   3599.4488     -592.7729       0             -548.5727       37676.781      1396.99      
    335000   2818.587      -590.69074      0             -556.0793      -7248.7852      1397.0776    
    336000   3164.1435     -587.9057       0             -549.05092     -805.77588      1443.144     
    337000   2946.6406     -588.57639      0             -552.39249      6635.0025      1404.6928    
    338000   2733.4356     -593.89374      0             -560.32793     -18275.93       1381.3183    
    339000   2704.5593     -596.53285      0             -563.32164     -4098.4254      1349.8642    
    340000   2586.5188     -583.22941      0             -551.4677       25486.713      1408.477     
    341000   3088.8719     -580.24132      0             -542.31086     -4041.2875      1446.809     
    342000   3140.9539     -583.29268      0             -544.72267      22111.055      1464.8824    
    343000   2712.4783     -581.83459      0             -548.52613     -28285.427      1523.1428    
    344000   2661.4779     -584.65568      0             -551.9735      -14789.96       1484.5116    
    345000   2608.6852     -593.34839      0             -561.31449     -12897.008      1435.0564    
    346000   3263.8265     -589.564        0             -549.48514     -5710.9583      1446.4542    
    347000   3275.8512     -587.38557      0             -547.15906     -6567.3118      1397.388     
    348000   3160.9339     -593.3901       0             -554.57473     -10330.585      1355.3251    
    349000   2822.9589     -590.59604      0             -555.93091      42520.177      1331.5143    
    350000   2946.7283     -594.2481       0             -558.06312     -24236.373      1406.8226    
    351000   2998.6316     -585.26785      0             -548.44551     -773.46263      1459.5268    
    352000   2865.7103     -588.2964       0             -553.10629     -27242.523      1456.503     
    353000   2681.1677     -587.87133      0             -554.94736     -3348.0907      1404.1076    
    354000   2968.4312     -591.03241      0             -554.58092      29711.105      1386.7669    
    355000   3543.51       -588.10462      0             -544.59133      20991.178      1394.2301    
    356000   2977.5571     -587.28492      0             -550.72137     -5897.0305      1389.585     
    357000   3033.0908     -593.28037      0             -556.03488     -15709.273      1412.9857    
    358000   2914.9405     -596.50101      0             -560.70638      8589.1443      1411.211     
    359000   3171.6673     -591.30747      0             -552.3603       53832.463      1407.7933    
    360000   3170.7707     -595.59372      0             -556.65756      12563.786      1415.6835    
    361000   3280.2229     -589.74961      0             -549.46941     -5129.1451      1421.4948    
    362000   2641.818      -588.0791       0             -555.63833     -38786.785      1474.5315    
    363000   2929.2817     -588.9036       0             -552.93286     -24053.714      1493.9625    
    364000   3379.4395     -591.76802      0             -550.26947     -20040.257      1486.4379    
    365000   2980.9931     -588.39423      0             -551.78849     -9061.8106      1470.1531    
    366000   3118.7674     -593.53295      0             -555.23538      5990.0433      1416.5653    
    367000   2664.0799     -592.40831      0             -559.69417     -11694.937      1423.3238    
    368000   2846.9629     -594.89108      0             -559.93119      35917.847      1331.8707    
    369000   2286.2735     -594.0967       0             -566.02191      10238.479      1372.6451    
    370000   2972.6458     -593.42779      0             -556.92455     -39363.99       1411.3716    
    371000   3127.3953     -589.16788      0             -550.76436      31647.558      1397.3588    
    372000   2548.8049     -593.94204      0             -562.64344     -17017.064      1447.9376    
    373000   2786.4968     -587.16552      0             -552.94814     -35200.852      1446.5066    
    374000   2892.0329     -594.19538      0             -558.68204     -2266.6936      1377.7432    
    375000   2719.6435     -596.7695       0             -563.37306     -12127.18       1372.4492    
    376000   3329.7878     -594.40705      0             -553.51821     -21475.991      1395.0746    
    377000   3290.4843     -590.71589      0             -550.30969      24135.283      1399.9509    
    378000   2888.1266     -592.28187      0             -556.8165      -2580.3511      1432.1676    
    379000   3468.0109     -581.8662       0             -539.28002     -23136.254      1477.4657    
    380000   3035.5924     -595.69307      0             -558.41686     -34418.502      1450.4505    
    381000   3028.9223     -592.30512      0             -555.11082      34737.382      1357.2837    
    382000   2689.9139     -591.3262       0             -558.29483     -18463.768      1411.7473    
    383000   3280.3845     -590.07743      0             -549.79525      27116.989      1363.8289    
    384000   2747.5017     -597.77736      0             -564.03883     -27615.02       1398.2621    
    385000   3140.3421     -591.81151      0             -553.249        40464.637      1441.7221    
    386000   2927.5808     -589.80977      0             -553.85992     -24091.956      1457.9442    
    387000   3264.976      -587.92051      0             -547.82754      14847.111      1438.6552    
    388000   2663.3635     -587.31528      0             -554.60994     -16333.988      1451.7896    
    389000   2336.5652     -589.03153      0             -560.33918      3023.479       1348.858     
    390000   3105.8791     -590.65446      0             -552.51515      1253.133       1367.7491    
    391000   3158.2147     -594.69518      0             -555.91321      15970.851      1389.7458    
    392000   3153.3589     -585.92346      0             -547.20112      11978.633      1416.3944    
    393000   3274.7475     -591.63636      0             -551.4234      -16985.856      1465.3388    
    394000   2998.3099     -589.58466      0             -552.76627     -32211.735      1452.5629    
    395000   2798.9284     -587.86547      0             -553.49543      3021.8977      1425.4874    
    396000   3155.3285     -587.74649      0             -548.99995     -3806.078       1399.7633    
    397000   3181.1085     -586.55768      0             -547.49458     -6638.5095      1379.0121    
    398000   3095.8184     -588.87596      0             -550.86019     -1923.9183      1410.9298    
    399000   2796.7852     -586.80535      0             -552.46163     -12881.706      1406.9842    
    400000   3668.834      -592.04734      0             -546.99511      56328.22       1374.1395    
Loop time of 6.35803 on 1 procs for 80000 steps with 96 atoms

Performance: 1087.130 ns/day, 0.022 hours/ns, 12582.521 timesteps/s, 1.208 Matom-step/s
99.2% CPU use with 1 MPI tasks x no OpenMP threads

MPI task timing breakdown:
Section |  min time  |  avg time  |  max time  |%varavg| %total
---------------------------------------------------------------
Pair    | 5.3467     | 5.3467     | 5.3467     |   0.0 | 84.09
Bond    | 0.0028177  | 0.0028177  | 0.0028177  |   0.0 |  0.04
Neigh   | 0.3192     | 0.3192     | 0.3192     |   0.0 |  5.02
Comm    | 0.20729    | 0.20729    | 0.20729    |   0.0 |  3.26
Output  | 0.0093015  | 0.0093015  | 0.0093015  |   0.0 |  0.15
Modify  | 0.44101    | 0.44101    | 0.44101    |   0.0 |  6.94
Other   |            | 0.0317     |            |       |  0.50

Nlocal:             96 ave          96 max          96 min
Histogram: 1 0 0 0 0 0 0 0 0 0
Nghost:            532 ave         532 max         532 min
Histogram: 1 0 0 0 0 0 0 0 0 0
Neighs:              0 ave           0 max           0 min
Histogram: 1 0 0 0 0 0 0 0 0 0
FullNghs:         3134 ave        3134 max        3134 min
Histogram: 1 0 0 0 0 0 0 0 0 0

Total # of neighbors = 3134
Ave neighs/atom = 32.645833
Ave special neighs/atom = 0
Neighbor list builds = 2525
Dangerous builds = 0

fix npt1 all npt temp 3000 2000 0.1 iso 0 0 1
run 80000
Per MPI rank memory allocation (min/avg/max) = 8.549 | 8.549 | 8.549 Mbytes
   Step          Temp          E_pair         E_mol          TotEng         Press          Volume    
    400000   3668.834      -592.04734      0             -546.99511      56328.22       1374.1395    
    401000   3263.9225     -588.35135      0             -548.27132     -17963.392      1409.8157    
    402000   2582.2396     -585.39667      0             -553.6875      -33510.743      1449.4974    
    403000   2775.6388     -589.46184      0             -555.37779      3595.8917      1436.2917    
    404000   2903.1064     -589.57271      0             -553.92339      3978.0775      1384.9289    
    405000   2510.5449     -593.6014       0             -562.77262      40124.854      1372.0269    
    406000   2931.173      -583.29608      0             -547.30212     -6136.9086      1381.2703    
    407000   2706.1447     -593.20426      0             -559.97358     -23822.933      1398.2666    
    408000   3219.4885     -594.57446      0             -555.04006      20253.865      1366.1497    
    409000   2797.8415     -597.06848      0             -562.71179      27005.579      1304.4253    
    410000   3055.947      -590.96421      0             -553.43806      34099.18       1339.8323    
    411000   2953.1248     -593.62286      0             -557.35933      10566.715      1321.9041    
    412000   2828.1746     -595.82083      0             -561.09165     -31203.176      1398.6705    
    413000   2608.9651     -593.84669      0             -561.80934      41357.564      1386.5047    
    414000   2642.5251     -588.73487      0             -556.28541      2312.3188      1371.0209    
    415000   3135.4684     -592.67373      0             -554.17108      26192.83       1367.0804    
    416000   2832.4391     -590.28451      0             -555.50297      39421.247      1343.6395    
    417000   2791.7385     -595.12528      0             -560.84353      842.50566      1336.8247    
    418000   2211.474      -592.71117      0             -565.5549       2580.8357      1337.784     
    419000   3103.9622     -588.51438      0             -550.39861      28899.075      1342.6812    
    420000   2698.1375     -594.18699      0             -561.05463      19271.573      1368.3982    
    421000   2819.7634     -590.15064      0             -555.52475      6048.4943      1350.2786    
    422000   2620.7116     -596.52559      0             -564.344        24178.148      1368.7084    
    423000   2495.9707     -597.57715      0             -566.92734     -13567.014      1362.8589    
    424000   2885.6078     -593.62577      0             -558.19133      19650.667      1331.3832    
    425000   2448.4205     -600.13602      0             -570.07012      20563.466      1335.5301    
    426000   2852.2044     -598.41042      0             -563.38616      9999.6768      1336.7437    
    427000   2679.4458     -598.52086      0             -565.61804     -15005.729      1340.6644    
    428000   2940.6167     -602.73733      0             -566.6274      -1715.5713      1285.7152    
    429000   2593.0462     -598.39696      0             -566.5551      -286.82864      1308.6062    
    430000   3006.3069     -594.39076      0             -557.47417     -5333.1548      1355.1635    
    431000   2767.7296     -593.57015      0             -559.58322      2495.8896      1355.8213    
    432000   2664.6617     -597.59853      0             -564.87725      5541.8807      1389.4551    
    433000   2581.245      -598.0447       0             -566.34775      17577.866      1338.8395    
    434000   2713.3103     -591.82459      0             -558.50591     -4501.1245      1323.2775    
    435000   2340.8165     -596.1577       0             -567.41315      13795.701      1313.6444    
    436000   3050.7861     -594.35038      0             -556.8876       17241.308      1317.0299    
    437000   2748.7677     -600.98783      0             -567.23375     -722.56409      1354.7566    
    438000   2531.8951     -595.82077      0             -564.72983     -10527.65       1388.8806    
    439000   2521.3609     -593.33467      0             -562.37308     -38408.375      1359.963     
    440000   2377.8586     -598.04262      0             -568.8432       2066.2533      1354.7588    
    441000   2479.9721     -591.36331      0             -560.90996      17089.789      1346.2995    
    442000   2423.7391     -594.13322      0             -564.3704      -6293.2316      1337.0009    
    443000   2174.2528     -596.03885      0             -569.33964     -4719.7816      1309.9776    
    444000   2774.352      -601.6366       0             -567.56835     -1284.995       1337.9047    
    445000   2684.8284     -601.82082      0             -568.8519      -33943.317      1375.1088    
    446000   2251.0807     -594.4154       0             -566.77277     -31884.79       1399.4513    
    447000   2535.5232     -597.01327      0             -565.87777      4709.6722      1387.6355    
    448000   2273.3559     -594.55029      0             -566.63414     -4028.0943      1337.9257    
    449000   2121.5902     -601.9292       0             -575.87668     -14114.237      1348.6949    
    450000   2511.1129     -597.25403      0             -566.41828      10811.754      1345.7326    
    451000   2224.1274     -600.0785       0             -572.76685      31516.925      1367.3435    
    452000   2548.4361     -596.05605      0             -564.76199     -51500.767      1383.5338    
    453000   2239.0718     -598.67918      0             -571.18402      31628.502      1363.5122    
    454000   2215.942      -598.7417       0             -571.53057      5677.7834      1361.0498    
    455000   2519.3176     -598.24332      0             -567.30682      33429.321      1357.097     
    456000   2387.1551     -602.66722      0             -573.35364      1537.5603      1351.6434    
    457000   2107.9241     -603.61786      0             -577.73316      23392.817      1320.2111    
    458000   2382.0898     -600.25483      0             -571.00345      55664.179      1320.7037    
    459000   2395.1007     -606.24482      0             -576.83367     -3102.6074      1348.1568    
    460000   2362.2758     -602.09126      0             -573.08319      8731.4294      1369.7246    
    461000   2213.8801     -599.80415      0             -572.61834      13841.611      1384.1471    
    462000   2006.2486     -603.86694      0             -579.23078      6511.0942      1363.3586    
    463000   2270.869      -600.46798      0             -572.58236      3956.6068      1337.9469    
    464000   2323.5929     -604.2241       0             -575.69104      13663.456      1337.1501    
    465000   2139.7153     -603.67774      0             -577.40264     -13037.133      1347.0689    
    466000   2307.4755     -600.06139      0             -571.72625     -7120.4174      1356.4168    
    467000   2012.0187     -601.08871      0             -576.38169     -4336.1222      1363.0101    
    468000   2369.7066     -606.37704      0             -577.27772     -3239.6179      1382.1916    
    469000   2049.0811     -599.77269      0             -574.61056     -23677.053      1389.273     
    470000   1866.3521     -602.76465      0             -579.84638      21402.495      1322.7484    
    471000   2068.9824     -598.7605       0             -573.35399      41987.724      1308.1595    
    472000   2007.8617     -604.63453      0             -579.97856     -26851.621      1374.6665    
    473000   2101.0034     -599.96687      0             -574.16715     -15330.06       1381.9845    
    474000   1884.2315     -601.30562      0             -578.1678      -24006.142      1393.128     
    475000   2351.8569     -606.71094      0             -577.83081      29369.335      1314.4575    
    476000   1985.9115     -604.20348      0             -579.81705      18737.31       1295.4086    
    477000   2277.1495     -603.08235      0             -575.11961      8838.8913      1326.0469    
    478000   2271.3113     -604.80125      0             -576.91019     -10176.01       1307.9824    
    479000   2008.0541     -606.87425      0             -582.21592      10392.067      1302.6058    
    480000   1877.607      -606.2807       0             -583.22423      101.30563      1328.6579    
Loop time of 6.33929 on 1 procs for 80000 steps with 96 atoms

Performance: 1090.342 ns/day, 0.022 hours/ns, 12619.701 timesteps/s, 1.211 Matom-step/s
99.2% CPU use with 1 MPI tasks x no OpenMP threads

MPI task timing breakdown:
Section |  min time  |  avg time  |  max time  |%varavg| %total
---------------------------------------------------------------
Pair    | 5.3745     | 5.3745     | 5.3745     |   0.0 | 84.78
Bond    | 0.0026746  | 0.0026746  | 0.0026746  |   0.0 |  0.04
Neigh   | 0.28175    | 0.28175    | 0.28175    |   0.0 |  4.44
Comm    | 0.20241    | 0.20241    | 0.20241    |   0.0 |  3.19
Output  | 0.0096281  | 0.0096281  | 0.0096281  |   0.0 |  0.15
Modify  | 0.4376     | 0.4376     | 0.4376     |   0.0 |  6.90
Other   |            | 0.03076    |            |       |  0.49

Nlocal:             96 ave          96 max          96 min
Histogram: 1 0 0 0 0 0 0 0 0 0
Nghost:            532 ave         532 max         532 min
Histogram: 1 0 0 0 0 0 0 0 0 0
Neighs:              0 ave           0 max           0 min
Histogram: 1 0 0 0 0 0 0 0 0 0
FullNghs:         3246 ave        3246 max        3246 min
Histogram: 1 0 0 0 0 0 0 0 0 0

Total # of neighbors = 3246
Ave neighs/atom = 33.8125
Ave special neighs/atom = 0
Neighbor list builds = 2211
Dangerous builds = 0

fix npt1 all npt temp 2000 2000 0.1 iso 0 0 1
run 80000
Per MPI rank memory allocation (min/avg/max) = 8.549 | 8.549 | 8.549 Mbytes
   Step          Temp          E_pair         E_mol          TotEng         Press          Volume    
    480000   1877.607      -606.2807       0             -583.22423      101.30563      1328.6579    
    481000   2133.7377     -603.14936      0             -576.94767      6353.6286      1310.4555    
    482000   1877.0399     -603.98795      0             -580.93843     -45533.1        1370.104     
    483000   2023.4075     -606.9091       0             -582.06223      20074.44       1264.5388    
    484000   2000.6287     -605.50303      0             -580.93588     -14627.448      1335.39      
    485000   2058.2963     -601.12736      0             -575.85207     -20749.058      1322.8804    
    486000   2074.6066     -606.84597      0             -581.37039      32099.821      1273.3377    
    487000   2038.433      -606.54141      0             -581.51004     -10406.99       1350.5689    
    488000   1881.5039     -609.08997      0             -585.98564     -7042.8754      1351.9919    
    489000   2164.822      -606.08056      0             -579.49717     -2470.9799      1293.32      
    490000   2241.7287     -603.40712      0             -575.87934     -20359.138      1366.4577    
    491000   1734.6778     -604.62629      0             -583.32494     -25465.175      1402.6857    
    492000   2105.5493     -603.14772      0             -577.29218      7213.5824      1343.2219    
    493000   1789.0819     -602.87955      0             -580.91013     -1002.8303      1392.3602    
    494000   2218.6645     -605.77872      0             -578.53415      43820.591      1317.7317    
    495000   2103.2917     -606.73867      0             -580.91085      36185.906      1329.567     
    496000   2020.7736     -605.82126      0             -581.00674     -10253.132      1396.5017    
    497000   2203.1628     -602.24755      0             -575.19334     -5788.1354      1383.789     
    498000   1926.4409     -605.83432      0             -582.17817      28439.679      1340.7959    
    499000   2222.1817     -606.42307      0             -579.13531      32630.125      1341.3262    
    500000   2365.8714     -605.16028      0             -576.10805     -12126.268      1387.5639    
    501000   2229.7356     -604.71629      0             -577.33577      1923.9012      1347.5806    
    502000   1909.9818     -608.16702      0             -584.71299      9138.9788      1323.1529    
    503000   1980.3891     -602.64317      0             -578.32456     -28295.283      1387.737     
    504000   2111.7859     -610.13272      0             -584.20059     -10391.901      1345.7871    
    505000   1888.4317     -606.08452      0             -582.89512      32523.234      1346.6362    
    506000   1902.9736     -601.13071      0             -577.76274      9116.0971      1353.9188    
    507000   2189.8686     -603.37656      0             -576.4856      -34745.284      1346.0165    
    508000   2260.3909     -606.3383       0             -578.58134     -18590.405      1361.2255    
    509000   1912.1528     -607.05916      0             -583.57847      12925.824      1344.6426    
    510000   1956.481      -605.94288      0             -581.91785      48058.385      1351.0466    
    511000   2207.6603     -604.70035      0             -577.59091      1355.4256      1374.25      
    512000   2127.2853     -606.6384       0             -580.51594     -28224.747      1428.5394    
    513000   2213.1283     -605.92265      0             -578.74607      41706.616      1329.7277    
    514000   1937.7065     -607.41174      0             -583.61726      15155.112      1367.5243    
    515000   2044.1296     -602.74871      0             -577.64738      13421.177      1340.5386    
    516000   1901.8422     -607.38515      0             -584.03107     -28623.88       1406.341     
    517000   1974.8601     -604.27595      0             -580.02524     -6239.5354      1333.1588    
    518000   2142.6877     -601.59712      0             -575.28552     -6672.8568      1374.4176    
    519000   2064.3949     -604.354        0             -579.00383      7541.9223      1388.7923    
    520000   2334.8644     -599.50703      0             -570.83556     -17741.373      1402.1484    
    521000   2079.6622     -604.33347      0             -578.79581     -9355.6292      1401.9327    
    522000   2148.0651     -604.5414       0             -578.16377     -8198.188       1336.9305    
    523000   1994.9034     -607.82681      0             -583.32996     -4612.3587      1368.1489    
    524000   2158.8039     -602.54587      0             -576.03638      6884.8833      1396.5723    
    525000   1714.282      -604.69172      0             -583.64083     -46236.493      1412.0475    
    526000   2154.7441     -604.78685      0             -578.32721     -5266.9002      1362.2511    
    527000   1878.3844     -603.1831       0             -580.11707      42.950106      1355.6752    
    528000   1938.8692     -606.74442      0             -582.93566      7773.5062      1358.619     
    529000   2138.035      -602.8033       0             -576.54884     -8592.4813      1377.5251    
    530000   2080.979      -604.83522      0             -579.28139      1063.6267      1397.2059    
    531000   2124.0919     -603.892        0             -577.80876      9398.6958      1377.8413    
    532000   2169.1571     -607.08299      0             -580.44636      9442.5314      1343.9807    
    533000   1925.8546     -606.50472      0             -582.85578     -7269.4676      1394.6632    
    534000   2049.9114     -601.51148      0             -576.33915     -19268.147      1368.9559    
    535000   1909.3359     -604.13955      0             -580.69345      32861.643      1323.0595    
    536000   1962.5827     -604.32101      0             -580.22105      33102.307      1342.8022    
    537000   1832.792      -603.04245      0             -580.53629     -17737.094      1384.5456    
    538000   2156.2639     -600.9779       0             -574.4996       12755.649      1348.8938    
    539000   2220.3643     -605.59567      0             -578.33023     -7174.7825      1371.0153    
    540000   1917.0306     -605.74899      0             -582.20841     -3963.4538      1350.2681    
    541000   2060.1624     -602.8479       0             -577.5497       6482.4146      1370.5948    
    542000   1841.3034     -603.91185      0             -581.30117     -9145.9217      1403.6103    
    543000   1996.3815     -605.81058      0             -581.29559      12890.88       1350.3548    
    544000   1725.435      -608.42647      0             -587.23862      19167.224      1323.8885    
    545000   1991.4085     -601.79302      0             -577.33909     -20550.022      1356.4357    
    546000   1795.6743     -605.0076       0             -582.95723     -14378.597      1362.5957    
    547000   1821.919      -606.27083      0             -583.89819     -3534.7067      1320.7757    
    548000   2020.4004     -604.6867       0             -579.87676      1981.7829      1358.9996    
    549000   2110.696      -600.31694      0             -574.3982      -9215.4945      1340.1135    
    550000   1888.8895     -603.10265      0             -579.90763     -15914.698      1337.3674    
    551000   1701.1399     -602.07472      0             -581.18521     -13413.385      1365.7999    
    552000   1683.0075     -604.59377      0             -583.92692     -18177.741      1371.2624    
    553000   2119.2757     -605.49588      0             -579.47178     -16005.975      1362.9181    
    554000   2096.7483     -605.75991      0             -580.01244      11305.057      1323.1381    
    555000   2082.7377     -603.86551      0             -578.29009      22497.004      1345.3961    
    556000   2300.2614     -604.72932      0             -576.48277      4009.9959      1344.9257    
    557000   1979.3245     -604.97814      0             -580.6726       19565.449      1389.4521    
    558000   1984.0831     -597.02715      0             -572.66318     -21376.906      1378.1579    
    559000   1661.8036     -605.61934      0             -585.21287     -2923.8148      1344.5972    
    560000   2215.7132     -605.56007      0             -578.35175      13833.019      1353.1429    
Loop time of 6.22371 on 1 procs for 80000 steps with 96 atoms

Performance: 1110.591 ns/day, 0.022 hours/ns, 12854.068 timesteps/s, 1.234 Matom-step/s
98.5% CPU use with 1 MPI tasks x no OpenMP threads

MPI task timing breakdown:
Section |  min time  |  avg time  |  max time  |%varavg| %total
---------------------------------------------------------------
Pair    | 5.2682     | 5.2682     | 5.2682     |   0.0 | 84.65
Bond    | 0.0025709  | 0.0025709  | 0.0025709  |   0.0 |  0.04
Neigh   | 0.23584    | 0.23584    | 0.23584    |   0.0 |  3.79
Comm    | 0.20097    | 0.20097    | 0.20097    |   0.0 |  3.23
Output  | 0.0088527  | 0.0088527  | 0.0088527  |   0.0 |  0.14
Modify  | 0.47701    | 0.47701    | 0.47701    |   0.0 |  7.66
Other   |            | 0.03025    |            |       |  0.49

Nlocal:             96 ave          96 max          96 min
Histogram: 1 0 0 0 0 0 0 0 0 0
Nghost:            552 ave         552 max         552 min
Histogram: 1 0 0 0 0 0 0 0 0 0
Neighs:              0 ave           0 max           0 min
Histogram: 1 0 0 0 0 0 0 0 0 0
FullNghs:         3182 ave        3182 max        3182 min
Histogram: 1 0 0 0 0 0 0 0 0 0

Total # of neighbors = 3182
Ave neighs/atom = 33.145833
Ave special neighs/atom = 0
Neighbor list builds = 1839
Dangerous builds = 0

fix npt1 all npt temp 2000 1000 0.1 iso 0 0 1
run 80000
Per MPI rank memory allocation (min/avg/max) = 8.549 | 8.549 | 8.549 Mbytes
   Step          Temp          E_pair         E_mol          TotEng         Press          Volume    
    560000   2215.7132     -605.56007      0             -578.35175      13833.019      1353.1429    
    561000   1743.6739     -604.52599      0             -583.11417     -40080.394      1364.3499    
    562000   1809.3959     -600.85973      0             -578.64086     -17471.668      1408.0288    
    563000   1859.5974     -607.82353      0             -584.9882      -9198.3276      1334.7606    
    564000   1955.2623     -603.85289      0             -579.84283     -6719.6626      1393.428     
    565000   2281.6559     -604.62847      0             -576.61038      141.84443      1386.4981    
    566000   2156.9264     -608.73266      0             -582.24623      27489.525      1313.3418    
    567000   2038.3477     -603.02784      0             -577.99752     -24635.656      1398.3486    
    568000   1802.5332     -605.50994      0             -583.37535     -4288.1785      1388.5997    
    569000   1714.4433     -608.06757      0             -587.0147       13854.514      1280.5687    
    570000   2054.7841     -604.90293      0             -579.67077     -15669.175      1354.9657    
    571000   1823.7957     -605.0727       0             -582.67701     -19375.452      1307.3761    
    572000   1657.4712     -605.73161      0             -585.37834      6576.3018      1317.3249    
    573000   1683.5332     -603.43342      0             -582.76011     -10739.917      1379.6637    
    574000   1822.2845     -608.71314      0             -586.336        26171.254      1297.8194    
    575000   1679.9789     -602.7584       0             -582.12874      6201.2458      1376.0038    
    576000   1746.9117     -607.56735      0             -586.11578      15121.645      1328.7724    
    577000   1640.5971     -605.15313      0             -585.00706     -16122.96       1350.9016    
    578000   1810.4087     -609.05953      0             -586.82823      13350.531      1368.0689    
    579000   1607.4022     -610.23453      0             -590.49609      22849.854      1345.0991    
    580000   2053.3663     -610.7191       0             -585.50435     -14357.047      1357.2368    
    581000   1551.0222     -607.86619      0             -588.82008      15245.881      1308.1486    
    582000   1959.5791     -607.30231      0             -583.23924     -29539.984      1390.4463    
    583000   1618.512      -605.95965      0             -586.08479      13217.735      1350.0625    
    584000   1746.303      -607.18258      0             -585.73848      11725.105      1349.0657    
    585000   1735.4439     -608.63766      0             -587.32691      1385.2874      1375.3821    
    586000   1543.2832     -609.13333      0             -590.18225     -23218.839      1320.8411    
    587000   1738.0513     -607.12625      0             -585.78348     -2505.8993      1339.6128    
    588000   1752.0796     -607.45461      0             -585.93958     -4595.4653      1370.4349    
    589000   1653.2467     -609.01441      0             -588.71301     -13774.548      1344.2475    
    590000   1459.8268     -611.86148      0             -593.93523     -7766.086       1345.4966    
    591000   1803.0712     -609.60753      0             -587.46633      9128.4702      1366.4513    
    592000   1548.0247     -609.97437      0             -590.96507     -15077.775      1362.5399    
    593000   1592.4523     -608.62572      0             -589.07086     -13385.415      1357.6326    
    594000   1908.902      -608.02693      0             -584.58616     -15103.671      1347.2028    
    595000   1481.0577     -611.24564      0             -593.05868     -6471.8663      1345.7531    
    596000   1481.8626     -612.13733      0             -593.94048     -739.25703      1334.371     
    597000   1418.6979     -608.96455      0             -591.54335     -13844.784      1390.2084    
    598000   1462.0549     -609.48092      0             -591.5273      -11867.336      1357.4073    
    599000   1374.6091     -611.50005      0             -594.62024     -7751.8297      1343.848     
    600000   1446.4618     -609.9949       0             -592.23277      15060.244      1310.8106    
    601000   1460.1087     -608.58416      0             -590.65445      38415.282      1326.4912    
    602000   1398.5434     -611.99389      0             -594.82017     -24843.468      1373.4654    
    603000   1552.0227     -612.36589      0             -593.3075      -8631.8032      1348.0272    
    604000   1506.5963     -611.31109      0             -592.81052     -10340.714      1335.2076    
    605000   1430.0874     -610.1305       0             -592.56944      9853.9395      1325.1323    
    606000   1587.4914     -612.82797      0             -593.33403     -8527.1793      1373.882     
    607000   1551.6772     -611.55947      0             -592.50532     -5025.0756      1311.7419    
    608000   1334.8804     -614.35672      0             -597.96477      16744.052      1339.252     
    609000   1375.8672     -610.83817      0             -593.94291     -3781.593       1330.8893    
    610000   1493.6305     -613.60801      0             -595.26665     -32380.009      1388.4511    
    611000   1395.8718     -614.24701      0             -597.1061       5545.6188      1313.7749    
    612000   1384.1153     -615.12134      0             -598.1248       6907.4234      1341.0426    
    613000   1262.4309     -614.4026       0             -598.90031      19225.921      1326.9926    
    614000   1286.6424     -612.81004      0             -597.01044      14042.326      1372.9246    
    615000   1462.4985     -610.04173      0             -592.08267      3349.803       1301.5911    
    616000   1260.7307     -612.36024      0             -596.87883     -6818.8686      1346.9248    
    617000   1266.0205     -611.37521      0             -595.82884      1023.5934      1358.1709    
    618000   1323.3845     -615.20845      0             -598.95766     -22982.952      1321.8898    
    619000   1503.6448     -613.69371      0             -595.22938     -2733.2038      1368.8283    
    620000   1126.6595     -614.54206      0             -600.707        19093.882      1318.942     
    621000   1284.6024     -614.61027      0             -598.83572     -6428.6758      1355.0784    
    622000   1313.0561     -612.69425      0             -596.57029     -14099.803      1316.8388    
    623000   1188.3922     -615.93012      0             -601.33701     -14485.936      1342.1455    
    624000   1326.669      -615.40291      0             -599.11179      2170.8758      1316.6628    
    625000   1105.8105     -615.1152       0             -601.53616     -8100.9122      1343.9882    
    626000   1197.0867     -616.3264       0             -601.62652     -214.33631      1334.5813    
    627000   1215.5433     -615.81539      0             -600.88886     -4840.0417      1348.0983    
    628000   1075.8712     -616.77419      0             -603.5628      -5791.151       1328.9239    
    629000   972.17088     -614.75519      0             -602.81721     -26388.167      1349.5663    
    630000   1199.0195     -616.54507      0             -601.82146     -3722.6521      1346.0636    
[...]
Histogram: 1 0 0 0 0 0 0 0 0 0
Neighs:              0 ave           0 max           0 min
Histogram: 1 0 0 0 0 0 0 0 0 0
FullNghs:         3168 ave        3168 max        3168 min
Histogram: 1 0 0 0 0 0 0 0 0 0

Total # of neighbors = 3168
Ave neighs/atom = 33
Ave special neighs/atom = 0
Neighbor list builds = 121
Dangerous builds = 0


fix npt1 all npt temp 500 10 0.1 iso 0 0 1
run 80000
Per MPI rank memory allocation (min/avg/max) = 8.549 | 8.549 | 8.549 Mbytes
   Step          Temp          E_pair         E_mol          TotEng         Press          Volume    
    880000   495.41999     -624.84547      0             -618.76186      3152.9471      1310.5985    
    881000   464.81186     -623.6088       0             -617.90105     -12577.449      1320.7775    
    882000   498.52688     -624.7594       0             -618.63763     -16256.594      1346.1355    
    883000   538.58858     -624.45254      0             -617.83883      2654.5173      1310.6037    
    884000   455.5153      -624.7331       0             -619.1395      -2381.3356      1337.3531    
    885000   574.8689      -624.26537      0             -617.20614     -1991.4202      1315.906     
    886000   491.47836     -625.35514      0             -619.31993      9394.2662      1304.8493    
    887000   458.73484     -624.60873      0             -618.9756       4287.0012      1328.2314    
    888000   489.75279     -624.69295      0             -618.67892     -6193.0824      1318.1963    
    889000   416.93298     -624.85571      0             -619.73589      9785.5033      1309.1805    
    890000   385.40238     -626.61566      0             -621.88303     -674.34547      1316.9893    
    891000   428.70747     -625.14368      0             -619.87928     -9923.3876      1322.487     
    892000   414.57567     -626.39567      0             -621.3048      -1105.5221      1298.49      
    893000   426.70619     -625.19334      0             -619.95351      4595.2374      1288.5462    
    894000   411.11833     -625.66686      0             -620.61845     -3390.4831      1332.4262    
    895000   485.34807     -625.86581      0             -619.90587     -5920.3593      1311.0432    
    896000   410.10557     -625.29906      0             -620.26308     -16307.262      1314.2366    
    897000   358.71981     -626.22804      0             -621.82307     -1164.4884      1323.4541    
    898000   442.57988     -626.05932      0             -620.62457      1454.3823      1302.0318    
    899000   373.46193     -626.04983      0             -621.46383     -14188.359      1324.9422    
    900000   457.55904     -626.239        0             -620.62031      624.49651      1319.5846    
    901000   373.07646     -626.23824      0             -621.65697      2352.7949      1314.0443    
    902000   359.94681     -625.41986      0             -620.99982     -2039.2978      1311.3508    
    903000   352.47119     -626.18927      0             -621.86103      11085.787      1293.8369    
    904000   402.21364     -626.48989      0             -621.55082     -1476.0145      1314.9181    
    905000   328.98648     -625.75761      0             -621.71775      155.95653      1311.7731    
    906000   344.06266     -626.17153      0             -621.94654      1205.0544      1316.1478    
    907000   337.35608     -626.15961      0             -622.01697      556.32613      1324.2962    
    908000   311.27541     -626.98929      0             -623.16692     -354.07641      1314.6698    
    909000   300.96689     -626.66631      0             -622.97053      12444.721      1294.09      
    910000   330.69626     -626.85375      0             -622.79289      2278.7077      1311.8092    
    911000   328.78935     -626.86166      0             -622.82422      1399.8792      1296.531     
    912000   282.71781     -627.08582      0             -623.61413      8450.6986      1315.707     
    913000   290.48184     -627.43056      0             -623.86353      11879.481      1304.0645    
    914000   295.39082     -626.74853      0             -623.12122     -5230.6112      1328.2072    
    915000   256.11063     -627.87541      0             -624.73044     -16867.577      1325.7971    
    916000   295.14322     -627.17094      0             -623.54667      11465.631      1304.6157    
    917000   274.79559     -627.38622      0             -624.01181     -4037.7319      1304.8014    
    918000   264.48038     -626.84587      0             -623.59813      5703.2725      1294.5634    
    919000   250.08008     -627.43503      0             -624.36412      2407.0968      1313.6803    
    920000   240.90567     -627.14081      0             -624.18256      2345.2756      1308.0976    
    921000   263.47378     -627.36755      0             -624.13217      6227.1674      1306.3064    
    922000   220.26467     -627.67801      0             -624.97322      16348.931      1296.5333    
    923000   241.73028     -627.7246       0             -624.75622      12858.983      1311.8945    
    924000   212.42326     -627.97743      0             -625.36893      4525.892       1305.0181    
    925000   220.48506     -627.44662      0             -624.73912      3905.0637      1325.1056    
    926000   209.95136     -628.26528      0             -625.68713      8897.8597      1280.8273    
    927000   209.74795     -627.89877      0             -625.32313      4861.9576      1310.1015    
    928000   201.8754      -628.29087      0             -625.8119      -252.132        1297.7696    
    929000   192.32509     -628.26923      0             -625.90753     -5523.4098      1317.1873    
    930000   202.75177     -628.10347      0             -625.61374      221.05744      1307.2285    
    931000   164.34193     -628.32434      0             -626.30627     -6844.6384      1319.7847    
    932000   208.76219     -628.53831      0             -625.97477     -1037.3378      1291.3021    
    933000   161.09323     -628.6081       0             -626.62992     -3098.5793      1306.6695    
    934000   178.92198     -628.9924       0             -626.79529     -5455.6748      1314.4784    
    935000   163.83585     -628.50621      0             -626.49435     -2923.1821      1309.6193    
    936000   160.09002     -628.98435      0             -627.01849      3698.1728      1306.1065    
    937000   156.92475     -628.88565      0             -626.95866      538.42597      1306.6561    
    938000   143.53644     -628.82591      0             -627.06332     -4358.0824      1310.1219    
    939000   138.72779     -629.18784      0             -627.4843      -3098.0783      1315.9488    
    940000   150.6161      -628.70489      0             -626.85537     -11656.709      1318.6376    
    941000   125.25589     -629.33094      0             -627.79283      3749.0234      1296.4513    
    942000   128.43426     -629.1492       0             -627.57206      3503.126       1311.9457    
    943000   117.68675     -629.18236      0             -627.7372       4105.9602      1299.1476    
    944000   114.55988     -629.40162      0             -627.99486     -4632.0416      1315.698     
    945000   95.208575     -629.65446      0             -628.48533     -894.6577       1299.9262    
    946000   99.290773     -629.40713      0             -628.18787      634.15261      1304.0138    
    947000   105.60498     -629.71038      0             -628.41358      1459.0369      1297.4711    
    948000   73.695419     -629.62864      0             -628.72368     -930.02859      1307.3475    
    949000   68.912045     -629.77524      0             -628.92902     -5241.5202      1301.3958    
    950000   68.528792     -629.92836      0             -629.08684      372.50032      1302.5585    
    951000   61.700357     -629.93058      0             -629.17292      1240.5212      1302.5708    
    952000   63.016996     -630.08299      0             -629.30916     -7047.7044      1311.6592    
    953000   56.435245     -630.05938      0             -629.36637     -4227.559       1303.2119    
    954000   45.479563     -630.14889      0             -629.59041     -1926.9951      1310.3546    
    955000   40.126699     -630.2408       0             -629.74806      3718.8151      1301.4063    
    956000   35.328285     -630.32522      0             -629.8914      -920.17225      1302.7922    
    957000   29.34272      -630.39511      0             -630.03479     -3158.8495      1306.1619    
    958000   22.081129     -630.4533       0             -630.18215     -614.04139      1303.0676    
    959000   16.406364     -630.5551       0             -630.35364      2577.8748      1299.7512    
    960000   9.5627699     -630.61892      0             -630.50149      2199.6465      1300.8924    
Loop time of 5.53963 on 1 procs for 80000 steps with 96 atoms

Performance: 1247.736 ns/day, 0.019 hours/ns, 14441.392 timesteps/s, 1.386 Matom-step/s
98.6% CPU use with 1 MPI tasks x no OpenMP threads

MPI task timing breakdown:
Section |  min time  |  avg time  |  max time  |%varavg| %total
---------------------------------------------------------------
Pair    | 4.8603     | 4.8603     | 4.8603     |   0.0 | 87.74
Bond    | 0.0025391  | 0.0025391  | 0.0025391  |   0.0 |  0.05
Neigh   | 0.0033678  | 0.0033678  | 0.0033678  |   0.0 |  0.06
Comm    | 0.18282    | 0.18282    | 0.18282    |   0.0 |  3.30
Output  | 0.012602   | 0.012602   | 0.012602   |   0.0 |  0.23
Modify  | 0.454      | 0.454      | 0.454      |   0.0 |  8.20
Other   |            | 0.02396    |            |       |  0.43

Nlocal:             96 ave          96 max          96 min
Histogram: 1 0 0 0 0 0 0 0 0 0
Nghost:            548 ave         548 max         548 min
Histogram: 1 0 0 0 0 0 0 0 0 0
Neighs:              0 ave           0 max           0 min
Histogram: 1 0 0 0 0 0 0 0 0 0
FullNghs:         3250 ave        3250 max        3250 min
Histogram: 1 0 0 0 0 0 0 0 0 0

Total # of neighbors = 3250
Ave neighs/atom = 33.854167
Ave special neighs/atom = 0
Neighbor list builds = 26
Dangerous builds = 0

fix npt1 all npt temp 10 10 0.1 iso 0 0 1
run 80000
Per MPI rank memory allocation (min/avg/max) = 8.549 | 8.549 | 8.549 Mbytes
   Step          Temp          E_pair         E_mol          TotEng         Press          Volume    
    960000   9.5627699     -630.61892      0             -630.50149      2199.6465      1300.8924    
    961000   8.9104075     -630.6396       0             -630.53018      3582.1748      1302.332     
    962000   9.7637208     -630.62082      0             -630.50093     -1510.0004      1304.1871    
    963000   9.9062923     -630.62677      0             -630.50512      1063.5863      1300.7137    
    964000   12.302336     -630.62943      0             -630.47837      1826.6141      1299.5276    
    965000   9.0950217     -630.62243      0             -630.51074     -714.31008      1302.991     
    966000   10.45048      -630.61893      0             -630.4906      -1791.7647      1306.2276    
    967000   10.048067     -630.63186      0             -630.50847      477.90652      1303.9455    
    968000   10.052095     -630.62771      0             -630.50428      1084.4591      1301.6902    
    969000   11.859279     -630.63296      0             -630.48733      703.1464       1300.065     
    970000   10.587851     -630.63493      0             -630.50491      713.20472      1300.4971    
    971000   9.5081551     -630.63336      0             -630.5166       1668.5929      1303.9096    
    972000   10.280736     -630.61282      0             -630.48658     -1986.6293      1307.0503    
    973000   10.286304     -630.62226      0             -630.49595      2220.766       1301.5359    
    974000   9.0623131     -630.62001      0             -630.50873     -735.72371      1299.0944    
    975000   10.028469     -630.6231       0             -630.49996      4167.0921      1300.8384    
    976000   8.9403194     -630.6209       0             -630.51111     -406.00277      1303.2024    
    977000   11.125518     -630.63195      0             -630.49533      226.03394      1302.2826    
    978000   10.382862     -630.63322      0             -630.50572      479.03469      1302.3286    
    979000   11.074338     -630.62801      0             -630.49202      14.051124      1298.0821    
    980000   8.3168485     -630.62654      0             -630.52441      424.02159      1301.6635    
    981000   9.3448565     -630.624        0             -630.50925      3809.5432      1302.5727    
    982000   10.882056     -630.60831      0             -630.47468     -1237.0765      1303.2925    
    983000   9.5098078     -630.62797      0             -630.51119      4285.9945      1297.519     
    984000   9.5736106     -630.63124      0             -630.51368     -133.21839      1300.7694    
    985000   8.5350618     -630.61706      0             -630.51225     -1517.5026      1305.1661    
    986000   9.3688784     -630.63122      0             -630.51617     -982.84201      1303.0339    
    987000   10.472402     -630.62229      0             -630.4937      -797.32494      1296.5015    
    988000   10.602884     -630.61558      0             -630.48538      3367.2657      1300.7282    
    989000   10.330891     -630.6263       0             -630.49944     -497.84434      1305.2658    
    990000   9.0088673     -630.62705      0             -630.51643      1226.8536      1302.0572    
    991000   8.4963697     -630.60851      0             -630.50418      488.79091      1301.7708    
    992000   10.11821      -630.61339      0             -630.48915      427.07454      1302.7999    
    993000   9.3409838     -630.62287      0             -630.50817     -1762.5473      1304.9052    
    994000   9.9442872     -630.62201      0             -630.49989      1878.5622      1301.8828    
    995000   9.0688847     -630.61397      0             -630.50261      2921.5004      1300.2988    
    996000   8.7728541     -630.62618      0             -630.51845     -533.25555      1302.7741    
    997000   10.771896     -630.60652      0             -630.47425     -190.66986      1300.7003    
    998000   8.8072006     -630.61078      0             -630.50263     -347.71868      1305.4451    
    999000   9.2203721     -630.63092      0             -630.5177       4137.5602      1299.3689    
   1000000   9.5342988     -630.61804      0             -630.50097      687.40165      1301.2762    
   1001000   11.786496     -630.62592      0             -630.48118     -42.453282      1304.8489    
   1002000   9.5271147     -630.63267      0             -630.51568     -1753.1141      1304.2735    
   1003000   9.3020626     -630.63923      0             -630.52501     -2763.1063      1302.3764    
   1004000   10.170238     -630.63072      0             -630.50583     -53.056756      1300.8044    
   1005000   10.473867     -630.61848      0             -630.48986     -25.599191      1305.5703    
   1006000   9.3857935     -630.63104      0             -630.51579      1468.7574      1300.0823    
   1007000   10.188407     -630.623        0             -630.49789      435.17132      1302.3823    
   1008000   10.219028     -630.62628      0             -630.50079      811.9441       1304.0459    
   1009000   10.952367     -630.63606      0             -630.50156     -3129.7363      1307.212     
   1010000   10.002634     -630.6431       0             -630.52027      452.9147       1301.3087    
   1011000   10.321449     -630.63101      0             -630.50426      2911.7468      1299.1911    
   1012000   10.178799     -630.62678      0             -630.50179      205.78452      1302.3072    
   1013000   9.6449189     -630.62838      0             -630.50994     -138.46961      1304.9034    
   1014000   10.074733     -630.61047      0             -630.48676     -1094.1632      1300.3946    
   1015000   10.170709     -630.62593      0             -630.50104     -429.56138      1300.3253    
   1016000   9.3109241     -630.6259       0             -630.51157      2087.9903      1301.3495    
   1017000   9.9823547     -630.61901      0             -630.49643      1403.505       1303.7655    
   1018000   8.9219814     -630.63845      0             -630.52889      1911.8606      1299.6244    
   1019000   9.7510021     -630.61652      0             -630.49678      2797.1718      1301.1615    
   1020000   10.560588     -630.62426      0             -630.49458     -1012.8472      1303.2953    
   1021000   9.8292538     -630.64423      0             -630.52353     -796.7542       1302.6254    
   1022000   9.8022266     -630.62456      0             -630.50419      1717.284       1303.3434    
   1023000   8.2112034     -630.62654      0             -630.52571      111.71415      1301.9687    
   1024000   10.682976     -630.62199      0             -630.49081      2246.8648      1303.3181    
   1025000   9.3264262     -630.62079      0             -630.50626     -2013.4656      1306.0189    
   1026000   10.098167     -630.62584      0             -630.50184      120.98431      1301.2451    
   1027000   10.364288     -630.63429      0             -630.50702      2852.5042      1299.3185    
   1028000   9.8258467     -630.6114       0             -630.49074     -2546.0995      1303.6887    
   1029000   9.159293      -630.64007      0             -630.5276       399.06753      1302.5307    
   1030000   10.54626      -630.62968      0             -630.50017      2003.0485      1302.1709    
   1031000   8.6945204     -630.63626      0             -630.5295       1678.3507      1300.248     
   1032000   10.476392     -630.624        0             -630.49535      1075.5692      1302.1438    
   1033000   9.6792146     -630.63581      0             -630.51695      1306.0513      1302.914     
   1034000   9.9296156     -630.62126      0             -630.49933      705.20488      1299.9158    
   1035000   10.153182     -630.61762      0             -630.49294      2473.7206      1301.9805    
   1036000   10.329567     -630.6359       0             -630.50906     -117.51856      1302.9725    
   1037000   11.174687     -630.63487      0             -630.49765      928.34325      1303.4339    
   1038000   9.0071417     -630.62903      0             -630.51842     -97.86947       1302.1248    
   1039000   11.110743     -630.62519      0             -630.48876     -55.326019      1299.8893    
   1040000   11.483085     -630.61989      0             -630.47888      1485.424       1302.5656    
Loop time of 5.51644 on 1 procs for 80000 steps with 96 atoms

Performance: 1252.982 ns/day, 0.019 hours/ns, 14502.101 timesteps/s, 1.392 Matom-step/s
99.1% CPU use with 1 MPI tasks x no OpenMP threads

MPI task timing breakdown:
Section |  min time  |  avg time  |  max time  |%varavg| %total
---------------------------------------------------------------
Pair    | 4.8642     | 4.8642     | 4.8642     |   0.0 | 88.18
Bond    | 0.0026155  | 0.0026155  | 0.0026155  |   0.0 |  0.05
Neigh   | 0          | 0          | 0          |   0.0 |  0.00
Comm    | 0.18629    | 0.18629    | 0.18629    |   0.0 |  3.38
Output  | 0.0092439  | 0.0092439  | 0.0092439  |   0.0 |  0.17
Modify  | 0.4296     | 0.4296     | 0.4296     |   0.0 |  7.79
Other   |            | 0.02452    |            |       |  0.44

Nlocal:             96 ave          96 max          96 min
Histogram: 1 0 0 0 0 0 0 0 0 0
Nghost:            556 ave         556 max         556 min
Histogram: 1 0 0 0 0 0 0 0 0 0
Neighs:              0 ave           0 max           0 min
Histogram: 1 0 0 0 0 0 0 0 0 0
FullNghs:         3266 ave        3266 max        3266 min
Histogram: 1 0 0 0 0 0 0 0 0 0

Total # of neighbors = 3266
Ave neighs/atom = 34.020833
Ave special neighs/atom = 0
Neighbor list builds = 0
Dangerous builds = 0


write_data amorphousSiO.data
System init for write_data ...


Total wall time: 0:01:19
