96
 Atoms. Timestep: 0
2 0 7.95642 4.74695
2 4.63304 0 11.358
2 0 4.63304 4.74695
2 7.95642 0 11.358
2 0 4.63304 8.47514
2 7.95642 0 1.8641
2 0 7.95642 8.47514
2 4.63304 0 1.8641
2 10.7421 8.43088 6.61105
2 4.15858 10.7421 0
2 1.84736 4.15858 6.61105
2 8.43088 1.84736 0
2 1.84736 8.43088 6.61105
2 8.43088 10.7421 0
2 10.7421 4.15858 6.61105
2 4.15858 1.84736 0
2 10.5201 6.29473 5.04003
2 6.29473 10.5201 11.6511
2 2.06934 6.29473 5.04003
2 6.29473 2.06934 11.6511
2 2.06934 6.29473 8.18207
2 6.29473 2.06934 1.57102
2 10.5201 6.29473 8.18207
2 6.29473 10.5201 1.57102
2 10.1594 8.65935 9.20274
2 3.93011 10.1594 2.59169
2 2.43004 3.93011 9.20274
2 8.65935 2.43004 2.59169
2 2.43004 8.65935 9.20274
2 8.65935 10.1594 2.59169
2 10.1594 3.93011 9.20274
2 3.93011 2.43004 2.59169
2 2.43004 3.93011 4.01936
2 8.65935 2.43004 10.6304
2 10.1594 8.65935 4.01936
2 3.93011 10.1594 10.6304
2 10.1594 3.93011 4.01936
2 3.93011 2.43004 10.6304
2 2.43004 8.65935 4.01936
2 8.65935 10.1594 10.6304
2 0 10.703 0
2 1.88643 0 6.61105
2 0 1.88643 0
2 10.703 0 6.61105
2 0 0 1.872
2 0 0 8.48305
2 0 0 11.3501
2 0 0 4.73905
2 11.2706 2.31295 2.18973
2 10.2765 11.2706 8.80078
2 1.31887 10.2765 2.18973
2 2.31295 1.31887 8.80078
2 1.31887 2.31295 2.18973
2 2.31295 11.2706 8.80078
2 11.2706 10.2765 2.18973
2 10.2765 1.31887 8.80078
2 1.31887 10.2765 11.0324
2 2.31295 1.31887 4.42131
2 11.2706 2.31295 11.0324
2 10.2765 11.2706 4.42131
2 11.2706 10.2765 11.0324
2 10.2765 1.31887 4.42131
2 1.31887 2.31295 11.0324
2 2.31295 11.2706 4.42131
1 11.0086 7.83654 8.10972
1 4.75292 11.0086 1.49867
1 1.5809 4.75292 8.10972
1 7.83654 1.5809 1.49867
1 1.5809 7.83654 8.10972
1 7.83654 11.0086 1.49867
1 11.0086 4.75292 8.10972
1 4.75292 1.5809 1.49867
1 1.5809 4.75292 5.11238
1 7.83654 1.5809 11.7234
1 11.0086 7.83654 5.11238
1 4.75292 11.0086 11.7234
1 11.0086 4.75292 5.11238
1 4.75292 1.5809 11.7234
1 1.5809 7.83654 5.11238
1 7.83654 11.0086 11.7234
1 10.1088 10.1088 3.30552
1 2.48067 10.1088 9.91657
1 2.48067 2.48067 3.30552
1 10.1088 2.48067 9.91657
1 2.48067 10.1088 3.30552
1 10.1088 10.1088 9.91657
1 10.1088 2.48067 3.30552
1 2.48067 2.48067 9.91657
1 0 1.60471 1.57853
1 10.9848 0 8.18958
1 0 10.9848 1.57853
1 1.60471 0 8.18958
1 0 10.9848 11.6436
1 1.60471 0 5.03252
1 0 1.60471 11.6436
1 10.9848 0 5.03252
96
 Atoms. Timestep: 2000
2 12.5846 7.58656 5.42168
2 4.84243 12.7916 11.5526
2 -0.224179 5.02609 4.8466
2 7.52125 0.227645 12.2754
2 -0.221608 4.5869 7.92446
2 8.07513 0.0875398 1.90408
2 -0.20103 8.19772 8.78305
2 3.94689 12.3627 1.3669
2 10.4439 8.49172 6.77979
2 4.21182 10.3551 13.4347
2 2.27714 4.78088 6.60315
2 7.59508 2.19334 13.4164
2 1.25181 8.30792 7.44044
2 8.775 11.0424 0.000754693
2 11.1515 4.27169 6.04312
2 4.32872 1.57605 -0.21912
2 10.3869 6.8955 4.66667
2 6.65132 10.6289 12.3735
2 1.56271 6.84986 4.97207
2 5.91059 2.13644 11.7012
2 1.13206 5.90077 9.06703
2 6.17933 1.22737 1.74891
2 10.7131 6.12151 8.27195
2 6.29708 11.4458 1.21359
2 10.2844 8.92552 9.97862
2 3.811 9.84797 2.65238
2 2.90129 3.63858 9.0652
2 9.08882 1.91818 2.37476
2 2.32427 8.99761 9.2239
2 9.53514 10.2948 1.64153
2 11.0208 3.20172 8.37157
2 3.76405 1.81557 2.57718
2 1.77839 3.80952 4.00522
2 8.83582 2.49879 11.0079
2 11.1199 9.41259 3.95328
2 3.99651 10.2208 11.0375
2 10.6209 3.71362 3.42151
2 3.04701 1.64448 10.9456
2 1.10204 8.98647 4.58323
2 8.96226 11.1559 11.1882
2 0.771007 11.4257 13.1014
2 1.8229 12.3735 6.43901
2 0.182086 1.42078 12.9933
2 11.0515 12.2689 6.32075
2 0.208427 -0.113074 1.68454
2 12.6178 12.8202 8.0892
2 12.2323 -0.0705828 11.968
2 -0.185898 12.3876 4.66224
2 11.4017 1.23265 1.96056
2 10.2853 11.246 9.11992
2 1.29906 10.1003 1.70412
2 1.91014 0.412011 8.88796
2 0.830481 2.19856 2.44089
2 2.30865 11.0646 8.81698
2 12.15 10.5839 1.36845
2 10.0994 0.912789 8.50695
2 1.43399 11.1586 11.121
2 2.44782 0.757825 4.68283
2 10.9723 1.85101 10.9751
2 10.7235 11.5368 3.79433
2 11.7819 10.6181 11.327
2 10.9896 1.19493 4.47194
2 0.416186 2.04029 10.5361
2 1.93957 11.0865 4.13756
1 10.9107 7.97255 8.2737
1 4.73933 10.606 1.32712
1 1.89961 4.77658 8.13058
1 7.70986 1.7424 1.5286
1 1.30081 7.51264 9.25841
1 8.12068 11.3685 1.46133
1 11.1149 4.63675 7.71566
1 4.61322 0.946969 1.38
1 1.55498 5.17218 5.17
1 7.62405 1.94764 11.72
1 11.0112 8.11084 5.31622
1 5.01393 11.1136 11.8916
1 10.7967 5.30955 4.68123
1 4.35318 1.46079 11.7116
1 1.00357 7.95951 5.93308
1 8.08231 11.6443 12.259
1 11.0354 10.3389 2.51377
1 2.44769 10.4696 10.0284
1 2.2395 2.00851 3.48656
1 10.0024 2.33243 9.44841
1 2.38383 9.83491 3.12251
1 10.2372 10.6075 10.5657
1 10.7172 1.97994 3.23858
1 1.96813 2.31341 9.66032
1 -0.0928807 1.65223 1.20859
1 10.861 12.6579 8.03747
1 0.466972 11.4135 0.989046
1 1.3089 12.2157 8.0531
1 12.8009 11.4888 11.785
1 1.51543 12.5085 4.97296
1 12.1919 1.96334 11.9171
1 11.3178 12.7455 4.81905
96
 Atoms. Timestep: 4000
2 12.6189 7.37542 4.17936
2 4.22794 12.8717 11.2089
2 12.8282 4.26426 5.02614
2 8.20109 12.8791 11.8003
2 0.309746 4.15638 8.63133
2 7.81307 13.2591 1.53388
2 0.23912 8.35341 8.71516
2 3.81113 0.414746 1.17397
2 11.0964 7.88138 6.55535
2 4.17087 11.2212 13.774
2 1.75395 3.94173 7.0188
2 8.29022 1.36179 -0.643366
2 1.33292 7.96172 6.53862
2 8.36506 11.4599 -0.0966767
2 11.3152 4.13383 6.71254
2 4.1475 1.51938 13.1746
2 10.9369 6.33945 5.2672
2 5.86491 11.0063 12.0201
2 1.49062 5.29128 5.25915
2 6.49438 1.44886 11.2942
2 2.03847 6.38285 8.82118
2 6.10545 1.95071 1.41157
2 11.6069 6.19039 8.17842
2 6.17048 11.6752 1.80408
2 10.7833 8.76965 8.84881
2 3.7952 11.0122 2.5562
2 2.62686 3.72768 9.66573
2 8.86796 1.97729 2.50989
2 2.55673 9.08382 8.76553
2 9.00843 10.9236 2.61151
2 10.5768 3.9021 9.42483
2 3.61805 2.49957 2.41471
2 1.85971 3.03921 4.36933
2 8.75414 2.52499 11.1323
2 11.1248 9.10788 4.09265
2 3.47415 10.0558 11.0483
2 10.8593 3.08087 4.54516
2 3.80504 1.83625 10.3875
2 2.80646 8.98676 1.57599
2 8.87942 10.8482 10.7509
2 -0.464593 10.9149 13.3095
2 1.22344 12.7339 6.87205
2 -0.188374 1.8225 13.5359
2 10.9666 0.756781 7.065
2 12.1217 -0.537431 0.83767
2 -0.270276 -0.281956 9.21648
2 12.3544 -0.231314 11.7253
2 -0.304914 12.5686 4.68869
2 11.9876 1.35144 2.56921
2 11.024 11.6512 8.55929
2 0.504595 9.9972 1.63891
2 1.67273 1.01792 9.49317
2 1.03714 1.43825 2.31544
2 1.7089 11.3326 8.56746
2 11.4394 10.8702 1.49703
2 10.7256 0.69086 9.89025
2 0.648007 11.1977 10.5323
2 2.20692 0.664577 3.88174
2 10.9884 1.71772 10.7742
2 10.7785 11.8709 4.50958
2 11.5186 10.9631 10.8519
2 10.5902 0.683147 4.29333
2 0.899422 2.17956 11.1454
2 1.49384 11.1707 3.89713
1 11.7714 7.79295 8.04784
1 4.52448 11.9528 1.3467
1 2.08649 4.72425 8.53221
1 7.84527 1.46694 0.99409
1 1.70565 7.87554 8.15159
1 7.66548 11.1835 1.51061
1 12.0806 4.70377 8.49608
1 4.36426 2.06553 0.853688
1 0.921317 3.4642 5.64864
1 7.90469 1.35606 11.7542
1 11.328 7.87949 4.91155
1 4.17379 11.3874 11.961
1 11.3327 4.64238 4.9453
1 4.83994 0.998656 11.3027
1 1.07622 7.158 5.1275
1 7.64091 11.3026 12.151
1 10.5139 10.6864 3.27342
1 2.3016 10.0951 9.92916
1 2.30483 2.09503 3.13957
1 10.0803 3.14326 10.8925
1 2.27903 10.0874 2.83068
1 10.3386 10.2244 9.63252
1 10.4842 2.18326 3.36192
1 2.23973 2.51453 10.4356
1 -0.387623 1.189 0.981531
1 11.3819 0.239211 8.64909
1 12.8252 11.4187 0.957463
1 1.28778 -0.238967 8.56396
1 12.7101 11.4933 11.8402
1 1.11511 12.4852 5.01312
1 12.579 1.5736 11.6947
1 11.5377 -0.0157745 5.34303
96
 Atoms. Timestep: 6000
2 12.0966 8.0204 4.59451
2 4.08364 -0.065488 12.204
2 12.9972 4.56214 4.33681
2 7.57731 0.0157173 11.9413
2 -0.108382 4.13112 7.65842
2 7.74973 0.534146 2.02809
2 12.4862 8.19365 8.04778
2 3.89701 0.412084 2.61022
2 10.833 7.77521 6.58609
2 4.58416 11.3997 -0.0207952
2 1.58362 3.97111 6.36283
2 7.54836 2.18374 -0.25762
2 1.46031 8.35778 6.38953
2 8.1103 11.5947 0.169022
2 10.6804 3.89479 5.78564
2 4.61156 3.01572 -0.0239737
2 10.7092 5.78642 4.01438
2 6.21844 10.5467 11.791
2 1.57663 4.76423 3.07393
2 5.98462 2.19405 11.6472
2 1.21459 6.32655 8.36105
2 6.28885 2.59497 1.79955
2 10.2989 5.43695 8.15762
2 5.94378 12.2504 1.88562
2 10.1492 8.44737 9.24429
2 3.84213 10.8233 1.98201
2 2.48304 4.18183 9.27845
2 9.432 2.18087 0.821392
2 0.975854 9.07689 9.36665
2 8.02284 11.5189 3.09556
2 10.1019 3.07167 8.67343
2 3.35014 2.59809 2.4289
2 1.59086 2.83298 3.66584
2 9.08451 2.78584 11.2211
2 9.56104 8.92068 3.89882
2 3.60711 10.1929 10.6301
2 10.509 3.68429 2.81652
2 3.84966 2.75129 11.397
2 2.15029 8.91519 2.88412
2 9.22382 11.073 11.1415
2 12.3666 10.8164 13.5101
2 1.94253 0.0844299 7.02284
2 0.743135 1.0819 -0.231341
2 12.0663 12.3191 7.35967
2 13.0587 12.2374 1.43427
2 0.249481 0.525282 8.98248
2 12.3815 12.1818 10.5994
2 0.438301 12.359 5.303
2 11.8639 1.68959 2.11203
2 11.2362 11.1055 9.27279
2 1.03707 10.7909 2.37937
2 2.75025 1.52181 8.78138
2 1.45687 0.711184 2.09405
2 2.08431 11.6455 9.73677
2 10.6878 10.6966 2.37279
2 10.6047 1.26071 9.44388
2 1.07913 10.2881 11.5896
2 2.6571 0.724622 4.59959
2 11.8404 2.02699 11.5693
2 12.7554 10.3332 5.08055
2 11.3042 10.285 11.3786
2 10.7291 10.9074 4.79748
2 1.67798 1.78114 10.8977
2 2.29023 11.8433 3.87277
1 10.9444 7.24287 8.14902
1 4.49577 12.2167 1.14397
1 1.43926 4.64911 7.83405
1 7.81635 1.92816 1.40571
1 0.998574 8.0393 7.93823
1 7.42769 12.0399 1.53303
1 10.9201 4.2177 7.40218
1 4.71736 3.08229 1.68661
1 1.53111 4.28688 4.81778
1 7.90352 1.94117 11.6578
1 10.615 7.65388 4.65751
1 4.66894 11.2931 11.6988
1 11.3786 4.24893 4.22501
1 4.46055 1.69654 12.4001
1 0.481299 8.8031 5.22726
1 7.73051 11.2991 12.2281
1 9.46236 10.736 3.64146
1 1.94856 10.1245 10.2226
1 2.4988 1.47954 3.12413
1 10.4942 2.88328 10.4026
1 2.6578 10.3193 2.95069
1 10.2921 10.0317 10.2708
1 10.7629 2.64263 1.41052
1 2.80564 2.83067 9.99028
1 -0.0970112 0.915596 1.45882
1 11.7123 -0.407054 9.15285
1 12.3644 10.569 1.35914
1 2.21713 0.0461631 8.64329
1 12.506 11.139 11.8981
1 2.15599 12.3651 5.40769
1 0.347066 1.0168 11.863
1 11.8709 11.6353 5.8786
96
 Atoms. Timestep: 8000
2 11.0884 8.92694 4.512
2 4.68536 0.860171 12.4285
2 11.5999 5.14507 4.476
2 7.70824 12.2183 10.2597
2 12.1791 3.94313 8.27805
2 6.45337 1.19962 4.53563
2 12.5046 7.72842 7.91585
2 5.04973 0.11846 2.00999
2 9.77124 8.11493 6.4457
2 7.40513 0.0552945 0.0504178
2 0.579717 2.70861 5.21897
2 8.7683 1.43398 11.4868
2 1.14319 8.2232 6.3421
2 9.59009 12.3953 12.4549
2 10.1869 4.72092 5.86829
2 6.26379 3.35625 12.3961
2 9.54755 6.4469 3.973
2 6.75555 10.9909 12.3069
2 0.698658 4.37426 6.61568
2 6.00267 1.37923 10.7803
2 1.71763 6.10661 7.80813
2 8.34832 2.68004 0.194251
2 10.5165 5.68827 8.27466
2 6.35896 11.6695 4.4177
2 10.3094 7.88123 9.60681
2 3.35006 11.4282 3.94458
2 1.42789 3.84195 9.68805
2 9.41818 1.07879 1.43547
2 2.19331 8.36076 8.92499
2 7.57872 11.6265 6.97099
2 10.0266 2.3729 7.84891
2 5.75077 2.92053 1.35856
2 0.215385 3.36047 3.01741
2 8.22554 1.44593 8.79649
2 8.29043 9.05958 4.67577
2 4.02814 10.6894 10.0734
2 10.3942 3.09342 3.81406
2 3.84207 3.11835 10.634
2 0.858337 9.5295 4.26549
2 9.03595 9.45367 11.0444
2 1.07409 10.3827 12.632
2 1.37932 1.05161 6.45644
2 0.860089 2.08831 0.294498
2 10.1979 0.383281 8.64798
2 1.6429 12.7255 0.446822
2 0.187066 0.757525 8.57408
2 -0.30954 11.9601 10.4946
2 11.5088 0.471761 5.68864
2 12.3722 1.33495 2.44612
2 9.00032 7.27715 11.7758
2 2.01453 10.4453 1.75716
2 2.3613 1.11951 8.93821
2 2.85657 1.72178 2.13811
2 2.26651 11.3396 8.34903
2 4.27216 11.1877 -0.0743188
2 8.16944 0.85775 6.34225
2 1.40269 10.0544 10.4098
2 5.06663 1.76994 3.67758
2 11.671 1.5417 10.8374
2 11.87 10.6463 5.64057
2 11.458 9.13459 11.8796
2 9.38562 11.534 5.33283
2 0.984176 1.70993 11.0555
2 1.27423 -0.110743 4.18097
1 10.5182 7.54885 8.00823
1 4.92219 11.5494 3.29526
1 1.12052 4.67204 8.2241
1 8.81457 1.03632 -0.243519
1 1.38901 7.68896 7.87931
1 6.70713 0.109059 5.87793
1 10.6519 3.85712 7.40709
1 6.95455 3.59321 0.553622
1 0.488047 4.47438 4.81968
1 7.58271 1.17994 10.2216
1 9.60746 8.00212 4.8034
1 5.59553 12.2783 13.1972
1 9.90708 4.69863 4.23129
1 4.96089 2.53003 11.6599
1 -0.33388 9.10078 5.58848
1 8.51957 11.1636 11.3021
1 8.30608 10.1557 6.02273
1 2.56868 10.11 9.43904
1 4.73437 1.8709 1.84018
1 9.04008 1.00433 7.55363
1 1.74681 10.8366 3.85669
1 10.1297 8.30185 11.2498
1 10.4778 1.80858 2.83701
1 2.35868 2.59539 9.99781
1 1.26499 0.99698 1.71643
1 11.5784 0.36113 9.54558
1 2.30033 11.0963 0.150643
1 1.46175 0.141055 7.93211
1 0.0615823 10.2904 11.2509
1 0.270985 1.13535 5.14492
1 0.00362434 2.03111 12.2167
1 10.7875 11.8638 5.8991
96
 Atoms. Timestep: 10000
2 10.8115 8.75034 6.57481
2 4.89477 0.344228 10.8915
2 11.5394 6.04751 4.87298
2 7.75588 0.886805 12.3702
2 0.349127 3.03381 8.14504
2 5.85383 0.931705 7.06563
2 11.6946 7.90797 8.81387
2 4.67893 2.70279 4.10816
2 9.26685 7.16162 8.3828
2 4.99778 0.45239 0.312556
2 12.4399 0.886921 4.4336
2 7.59931 3.37519 12.7516
2 1.45186 6.96635 4.79652
2 9.20723 11.4184 1.11535
2 11.5544 4.3255 6.17271
2 4.88214 2.54508 12.2655
2 9.26534 6.6021 5.78544
2 6.50097 11.7408 12.8301
2 0.718148 2.8225 5.34386
2 6.46201 2.03996 10.2348
2 2.74079 3.58959 5.99526
2 6.91992 3.17231 2.57471
2 11.1359 5.6248 8.33094
2 7.3179 1.65397 4.99035
2 9.97545 7.87735 11.0866
2 5.20718 0.319818 3.47394
2 2.81642 1.5702 6.77837
2 8.92828 4.1387 1.09704
2 0.292331 9.34863 7.04495
2 8.42379 12.0608 5.85535
2 10.3299 3.1239 8.28505
2 3.36877 5.48193 5.64296
2 10.8958 2.43518 3.125
2 9.12168 1.90764 10.2072
2 8.84979 9.21684 6.87548
2 1.74351 7.28689 7.96098
2 10.2736 4.66298 3.23034
2 4.56667 1.64597 8.8393
2 0.657966 6.37496 2.72177
2 9.15613 10.519 12.1477
2 0.492619 10.7154 12.7932
2 1.04943 11.7759 6.60559
2 1.20096 2.70894 12.8812
2 10.8905 0.991258 8.67395
2 0.345833 0.670356 0.311069
2 1.31241 12.3699 8.91631
2 11.7739 11.5216 9.92285
2 0.64929 10.7205 4.8388
2 11.459 2.90459 1.18448
2 8.2602 10.0497 9.71272
2 2.8283 12.1637 1.19365
2 3.55935 11.9936 7.43118
2 12.7208 1.68305 2.63867
2 2.0464 9.70446 8.17635
2 3.26162 11.1318 12.5263
2 8.24408 0.976508 7.48693
2 0.57015 9.20283 10.156
2 4.5146 4.81108 2.9857
2 0.587757 1.50041 10.4544
2 11.6583 8.24001 4.64057
2 11.0353 9.76212 11.0356
2 11.1623 10.878 6.58277
2 3.13764 2.89978 10.8905
2 2.5599 12.4959 4.00891
1 10.5084 6.7976 9.47957
1 6.16933 1.9013 3.72894
1 1.43259 2.71131 6.70091
1 7.00584 3.48246 1.032
1 2.17279 6.46469 6.28867
1 7.366 0.692913 6.11445
1 11.5638 3.92918 7.86143
1 5.31817 2.03334 0.670432
1 12.3088 2.38178 4.0418
1 7.62803 2.31833 11.3231
1 9.44575 7.85715 6.84595
1 4.84261 11.9469 12.0708
1 10.2083 5.01265 4.96299
1 4.73691 2.07692 10.5099
1 12.6788 7.00876 3.94768
1 8.20583 11.9116 13.1418
1 9.14047 10.8662 6.5753
1 0.667923 8.56939 8.56023
1 3.68302 4.05427 4.36568
1 9.52543 1.77878 8.57446
1 3.90021 11.9945 2.81791
1 9.43483 9.41127 10.8753
1 10.1163 3.50326 2.014
1 4.16964 0.932189 7.3816
1 0.356551 2.20172 1.10275
1 12.3419 0.388603 9.38708
1 1.53584 12.0782 13.3
1 2.18196 11.295 7.85981
1 0.136018 10.3163 11.2213
1 1.10097 12.4415 4.98841
1 1.40531 2.58534 11.2294
1 11.7932 9.60007 5.71013
96
 Atoms. Timestep: 12000
2 11.1716 8.36581 5.71451
2 3.53824 1.46866 12.0192
2 11.2847 6.2664 2.96474
2 8.56268 0.458054 11.7166
2 0.826645 2.42697 7.29624
2 5.94995 1.43597 7.98253
2 12.236 8.28027 8.62728
2 5.0379 4.12582 4.57122
2 10.3821 7.76023 7.86635
2 3.15408 11.2031 1.0668
2 2.40952 0.461269 3.57904
2 8.40118 2.34831 0.445525
2 1.1161 7.49347 3.04662
2 10.45 10.9172 12.9157
2 12.3384 4.94755 5.36218
2 5.15677 1.25064 0.463523
2 10.6251 5.96572 5.67858
2 7.29524 11.3084 0.969812
2 1.90858 2.65983 5.12956
2 6.97151 1.98297 11.1065
2 3.56493 3.63178 6.30647
2 6.54707 2.96305 2.8019
2 12.1492 5.5935 7.89245
2 6.5664 2.56524 5.77142
2 9.13923 7.25236 9.24192
2 5.0209 1.41073 4.6965
2 3.35316 1.48888 7.453
2 8.67645 1.79792 3.06206
2 10.212 10.1889 8.33774
2 7.65122 11.6644 6.66884
2 10.6172 3.78677 8.26118
2 2.73242 5.96776 4.76096
2 11.7367 1.49077 3.92236
2 9.02127 2.65226 9.99012
2 8.81589 8.97877 6.10876
2 1.60012 7.95375 6.16162
2 10.1947 3.89416 3.9573
2 5.05698 1.23754 10.18
2 11.5571 8.03775 0.427824
2 7.51596 10.5268 11.2749
2 11.4354 10.5693 10.8604
2 2.88995 10.7599 7.59678
2 11.8139 3.28851 12.5382
2 11.1413 1.82853 9.15272
2 0.527236 0.934651 0.334093
2 1.66234 11.9908 8.57356
2 11.7129 11.8049 8.56301
2 0.899327 10.7537 5.53833
2 11.0172 2.28382 2.12596
2 6.60904 8.76984 9.9549
2 5.72335 0.334311 3.08737
2 3.47931 11.1377 10.6398
2 1.21578 2.44254 2.24891
2 2.9536 8.90174 8.38761
2 1.34915 11.2653 12.3087
2 8.35009 1.98806 7.33182
2 1.11826 9.81642 9.91234
2 4.46692 5.21389 7.34299
2 0.844849 2.56045 10.3207
2 11.1058 9.22235 3.23663
2 8.6844 10.4528 8.75388
2 10.2473 10.9683 5.25234
2 10.7441 4.33238 10.8858
2 3.68821 11.5382 5.0952
1 11.1874 6.7537 9.03329
1 6.0019 2.75031 4.22592
1 2.40892 2.67591 6.86191
1 7.60593 2.47527 1.77183
1 1.66158 7.27271 4.78571
1 6.89866 1.31445 6.85611
1 11.9362 4.04813 7.01144
1 6.27276 0.439752 1.42418
1 1.39345 1.54735 3.85179
1 8.53539 1.94335 11.6114
1 9.70978 7.57036 6.20921
1 2.99773 11.9404 12.1828
1 10.9653 5.22623 4.29595
1 4.98616 2.09447 11.644
1 11.7156 7.75574 2.23069
1 8.59092 10.7558 12.6557
1 8.91618 10.7671 5.88744
1 1.80421 7.975 7.81933
1 3.91261 5.05249 5.49766
1 9.45774 2.56701 8.36613
1 4.06914 0.340529 3.88425
1 7.19606 10.3035 9.77794
1 10.1686 2.11986 3.65188
1 4.56271 1.37159 8.70444
1 0.309386 2.33749 1.03967
1 0.486654 1.2903 8.67529
1 11.9441 11.6943 12.0745
1 2.5486 10.4961 9.29683
1 11.6825 10.097 9.28189
1 2.46277 11.2045 6.17098
1 0.294139 3.90961 11.0991
1 11.5543 9.89105 4.82008
96
 Atoms. Timestep: 14000
2 11.0079 9.68007 5.34029
2 3.42133 1.37549 11.6361
2 11.8455 6.97149 3.20114
2 7.71766 12.1071 13.3923
2 1.15903 2.64372 7.92746
2 6.21002 1.55849 8.67773
2 2.02901 8.50821 7.55734
2 4.55158 3.89657 5.30818
2 11.9872 7.53923 7.28308
2 3.51915 11.6204 1.17687
2 2.06911 0.571577 3.43869
2 7.37959 2.78646 1.9696
2 1.78686 8.51269 2.60058
2 9.53055 10.5652 11.7267
2 9.34209 5.7958 5.41429
2 5.48878 0.282845 12.3114
2 10.968 7.49664 5.46616
2 6.54656 9.99244 0.80512
2 2.64959 1.58077 5.87839
2 7.05806 2.2149 11.9283
2 3.02312 5.39684 6.95771
2 5.68527 3.36875 3.23267
2 9.49932 3.2329 5.13368
2 6.15183 1.90492 5.50863
2 1.47696 5.51036 9.12106
2 4.04636 1.6242 4.14208
2 4.23702 2.9738 7.80004
2 9.06679 3.46942 2.86316
2 10.4615 9.68342 7.87139
2 7.45975 11.364 6.06485
2 9.16151 3.95994 7.8296
2 5.11026 6.43818 5.71855
2 12.3321 2.59252 5.02822
2 7.39994 3.35893 8.83678
2 9.34376 8.779 6.2496
2 3.85564 8.8126 5.00244
2 11.2351 4.7084 4.19328
2 5.13113 2.74501 10.1779
2 11.8998 8.9905 13.0013
2 7.10228 10.3589 10.7242
2 11.4635 10.8479 10.5775
2 4.2189 12.2811 7.18826
2 10.9024 2.30196 12.8613
2 10.4753 2.2119 8.68834
2 10.1926 11.2332 1.2188
2 2.90934 0.295435 8.90402
2 11.6876 11.7481 8.09071
2 1.18056 9.24455 4.65424
2 10.7669 1.73116 2.95408
2 4.77859 10.6155 9.74671
2 4.76611 11.1248 2.87601
2 2.96367 11.1115 11.6331
2 0.352137 11.929 4.68294
2 4.16766 10.7496 7.35708
2 0.940367 11.5204 0.486744
2 8.38466 1.55868 7.11251
2 1.28942 10.0035 9.13559
2 5.57612 4.49982 7.76903
2 12.1777 1.52897 10.0113
2 11.2619 9.56457 2.68834
2 7.69453 9.76539 8.14428
2 6.09855 9.30883 5.83262
2 1.67085 2.232 12.3211
2 2.39513 10.4604 3.31313
1 1.86431 6.74294 7.94885
1 5.08229 2.84513 4.36546
1 3.03519 1.47915 7.63773
1 7.24832 4.18669 2.76436
1 5.64641 7.75618 4.83461
1 7.00563 1.05589 6.76549
1 9.14443 4.36516 6.28413
1 5.19525 10.8793 1.15685
1 1.37884 1.32458 4.83088
1 8.19535 1.81516 0.608387
1 10.9121 8.80083 6.65571
1 2.32408 0.577589 12.5893
1 10.6741 6.28397 4.17948
1 5.07819 1.84728 11.5581
1 12.2568 8.25031 1.88561
1 7.7996 10.7148 12.099
1 7.82582 9.78475 6.27729
1 3.50472 9.38473 6.77719
1 4.88744 5.00005 6.51823
1 8.82642 2.53487 8.37443
1 3.77873 11.8366 3.79191
1 6.59506 10.5042 9.26145
1 10.6698 2.89756 3.99692
1 5.8439 3.29332 8.81138
1 10.5498 1.25898 1.4784
1 11.9694 1.41314 8.37827
1 11.1521 10.7046 12.4424
1 3.16736 10.5656 9.9246
1 11.7604 10.4089 8.83272
1 2.61042 8.97915 4.04484
1 0.0955017 2.74874 11.6211
1 12.0075 10.3926 4.20039
96
 Atoms. Timestep: 16000
2 1.30376 9.81216 5.48382
2 4.49203 3.07706 12.5314
2 11.4225 7.73326 2.32381
2 8.49985 12.4924 12.9337
2 12.3092 1.99904 8.03798
2 5.69786 0.083764 8.7149
2 3.84324 8.54574 6.65508
2 5.00257 4.40976 5.88542
2 1.87121 7.48141 7.38014
2 3.776 11.4133 0.570191
2 2.46182 1.13755 4.20941
2 7.55108 2.62815 2.0618
2 0.752982 8.83978 1.95601
2 8.92078 10.275 11.6062
2 10.7431 3.3843 5.43379
2 5.22446 0.737499 11.9809
2 0.373879 7.28557 4.76883
2 6.52461 12.3064 0.58409
2 1.32612 1.94176 6.53202
2 7.36143 2.81266 12.3195
2 4.29517 6.75071 8.07547
2 6.41677 2.56405 3.93934
2 8.32001 3.34676 4.88286
2 5.19002 1.19269 6.35883
2 3.03301 9.24716 9.05141
2 4.19011 2.49093 3.71972
2 3.51559 2.15948 8.62478
2 9.75697 2.76544 3.53096
2 12.2118 9.14954 7.20046
2 6.88766 10.9008 6.99052
2 9.06188 3.49142 7.46099
2 6.10877 5.76064 7.19755
2 12.321 2.13649 4.18238
2 6.82305 3.23413 8.39736
2 8.43309 9.61935 7.09463
2 3.33203 8.65427 4.01818
2 0.277425 4.70535 3.31878
2 5.45455 3.2722 10.2939
2 11.3986 9.74879 0.026919
2 6.40901 10.9321 11.2128
2 11.2042 9.8131 10.1208
2 3.89353 6.71586 5.75845
2 11.2089 2.19814 12.7027
2 9.4456 1.89358 9.07635
2 10.6143 11.7721 12.4748
2 1.50445 0.249516 8.76564
2 10.9319 11.5999 8.57115
2 1.61644 10.3461 3.20185
2 10.778 3.71345 1.95097
2 3.43773 11.4788 9.71334
2 4.2075 1.43935 1.98026
2 2.2274 10.2683 11.3736
2 0.364463 12.178 4.88934
2 5.95437 8.84476 5.72728
2 2.44962 9.85981 0.964025
2 7.2641 1.19243 7.85732
2 0.767603 9.99457 9.40042
2 4.20754 4.13312 8.01984
2 11.3592 0.719072 10.5178
2 11.9493 10.1454 3.15294
2 5.74489 9.69447 8.95611
2 7.36189 7.89342 8.4983
2 1.07747 12.2697 12.6664
2 2.15348 2.27444 1.10166
1 3.31668 8.01396 8.12183
1 5.06545 2.82879 5.30386
1 1.72942 1.82255 8.30348
1 7.98799 3.00337 3.42895
1 7.21279 6.10294 8.28158
1 6.42206 0.0761527 7.22034
1 9.30588 3.85462 5.95116
1 5.02566 0.172763 0.956553
1 1.02976 1.26862 5.05854
1 8.07625 1.74695 0.459509
1 1.00905 8.24774 6.07079
1 2.2558 11.0512 12.8279
1 12.4107 6.63984 3.29766
1 5.83256 2.51638 11.6823
1 11.7037 9.18329 1.83094
1 7.50845 11.1341 12.7708
1 6.86326 9.06436 7.52793
1 4.63754 8.13589 5.10104
1 4.43633 5.43955 6.92127
1 8.22422 2.4009 8.31938
1 2.83993 1.86688 2.79374
1 5.22291 11.2848 9.63893
1 11.2654 3.38099 3.90337
1 4.90381 2.95055 8.68199
1 10.0697 2.90415 0.152533
1 11.1283 1.01208 8.82066
1 10.6222 10.4649 11.5665
1 2.28569 10.4265 9.83824
1 11.8271 10.1837 8.43903
1 2.27514 9.14006 2.55897
1 11.7157 0.645387 12.1115
1 0.59295 10.7581 4.21895
96
 Atoms. Timestep: 18000
2 0.49523 9.89458 5.75977
2 3.2245 3.48367 12.6004
2 10.8639 7.28307 3.05766
2 7.47444 1.4211 11.7434
2 11.7932 1.5572 8.81651
2 6.40967 11.9134 8.09495
2 4.19835 8.56155 6.72955
2 4.69475 3.70851 5.7818
2 1.57996 8.48913 7.5915
2 3.9358 10.9211 0.380141
2 2.14332 1.37553 4.139
2 7.93873 3.81155 1.09886
2 0.889661 7.56455 2.07743
2 8.59964 11.4835 12.679
2 9.03116 6.25912 5.17523
2 4.61267 1.2457 12.5369
2 11.2203 7.46387 5.84667
2 6.44102 11.7396 0.741803
2 1.01981 0.439228 6.33991
2 5.77409 3.24258 11.7771
2 3.22497 6.21075 7.61765
2 7.18572 3.20902 3.57408
2 8.7974 4.66908 3.86698
2 5.81251 1.42888 5.81155
2 3.01895 8.57647 9.12571
2 4.72375 2.93032 3.892
2 2.58232 1.65608 7.54109
2 10.0037 3.30154 2.41047
2 11.3661 8.89582 8.49066
2 7.60976 11.1069 6.33942
2 8.77665 3.73984 6.97935
2 5.44043 5.71914 7.64438
2 12.003 2.74412 4.30825
2 7.94336 4.84752 8.70862
2 10.0262 9.19816 6.67421
2 3.98391 7.72798 3.73779
2 11.4724 4.96645 3.70104
2 5.4634 2.03569 9.09972
2 10.3988 9.39952 0.46559
2 6.47508 10.7509 10.7338
2 10.4086 9.77349 11.0117
2 4.01342 5.91226 5.64655
2 1.16415 2.09291 0.556848
2 9.51141 2.36519 9.6364
2 10.8005 12.0713 0.435681
2 1.43806 11.5914 8.89966
2 10.3889 11.503 9.20215
2 2.04222 9.28315 3.56978
2 0.67113 3.96933 1.89741
2 4.08558 10.2644 9.02123
2 4.2168 1.16076 2.44866
2 2.52462 10.2283 11.3085
2 0.448943 11.8223 4.32241
2 6.54749 8.12032 5.83872
2 2.61332 8.60822 1.13213
2 7.51623 2.1572 7.47046
2 0.747798 10.2596 10.2706
2 3.78148 3.78634 8.02149
2 11.6587 1.28371 11.2214
2 11.3135 9.51091 2.90658
2 7.01039 9.60464 7.7579
2 8.06775 7.75993 7.25708
2 1.67668 11.8648 12.4183
2 7.06264 4.0741 5.35603
1 3.11368 7.87804 7.69899
1 5.77108 2.9445 4.99136
1 1.17487 0.970544 8.16122
1 8.54892 3.93114 2.61512
1 7.11786 6.35626 7.59549
1 6.91367 0.766434 6.53887
1 8.62164 4.64655 5.67479
1 4.7752 0.38921 1.13362
1 0.75062 1.19335 4.85876
1 7.04298 2.84581 12.5197
1 11.7668 8.87131 6.80091
1 2.23281 10.2972 0.267914
1 10.7865 6.28277 4.27999
1 4.25904 2.5963 11.6173
1 11.2265 8.37887 1.62465
1 7.05939 11.7515 11.7319
1 8.21795 9.33526 6.67444
1 4.70656 7.33099 5.13771
1 4.1229 4.91663 7.04854
1 8.14766 3.13593 8.6585
1 3.26692 2.19344 3.15312
1 5.87485 10.3499 8.94477
1 11.5359 3.55659 2.75193
1 4.11311 2.1921 8.10928
1 2.32592 3.37814 1.49116
1 10.7641 1.44274 9.94204
1 9.92125 10.6665 12.3108
1 2.45264 10.1921 9.7416
1 11.1192 10.1097 9.68786
1 2.55321 7.86931 2.88506
1 12.2144 0.841395 12.6814
1 0.367346 10.3085 3.78061
96
 Atoms. Timestep: 20000
2 0.0451498 10.0811 5.79575
2 2.35546 2.4871 12.6668
2 10.4139 7.69893 3.45812
2 7.0662 1.72307 12.5453
2 0.898832 1.12339 9.23942
2 6.88105 11.572 7.70811
2 4.70097 8.48728 6.78399
2 5.014 3.28912 5.68269
2 1.75244 8.8812 7.26907
2 2.88356 11.0155 0.504992
2 2.54629 1.62968 4.80529
2 7.19254 4.28491 1.0167
2 0.961038 7.98018 1.97862
2 7.95581 10.4586 12.7861
2 8.53474 6.08483 5.59979
2 4.38731 1.37478 12.3483
2 10.9033 7.78174 6.34503
2 5.56557 11.5114 0.879252
2 2.15366 1.90204 6.95481
2 4.4427 3.5687 12.5602
2 3.35731 6.2781 6.58529
2 6.00225 3.64623 3.05204
2 7.89746 4.73225 3.76993
2 6.45548 1.08383 5.21298
2 2.93213 8.47792 8.79766
2 5.22533 1.54371 3.70118
2 3.03587 2.50593 9.59367
2 5.83983 6.19631 2.71049
2 11.5197 9.14867 8.79767
2 8.191 10.5422 6.47746
2 9.59479 3.7413 6.22525
2 6.14959 5.59294 7.24643
2 0.563769 2.9224 4.81625
2 8.5898 4.50875 7.89595
2 10.3145 9.74285 7.29797
2 3.51666 6.98575 2.4346
2 11.4582 5.72048 4.53145
2 7.10327 2.55283 8.24652
2 10.2019 9.15431 1.36944
2 6.82599 11.3834 10.865
2 9.77514 9.70666 11.5605
2 4.51597 7.94066 4.61202
2 11.4588 2.08475 13.0345
2 9.70799 2.10066 8.78659
2 10.2518 11.904 0.341632
2 2.84317 11.2805 8.41186
2 10.3982 11.1207 9.18595
2 2.55852 9.64861 3.25311
2 0.742217 4.15184 2.24718
2 5.13056 9.84245 9.3915
2 3.53195 11.637 2.70976
2 2.26793 10.3966 10.4455
2 0.556249 12.1457 5.09047
2 4.49245 5.37018 4.73732
2 2.4055 9.02093 0.697611
2 8.57451 1.4492 7.05777
2 0.489923 9.59173 10.8383
2 4.61317 3.98117 7.6508
2 10.7034 1.5172 10.5055
2 11.8243 9.55472 3.89204
2 7.95405 9.94741 8.84601
2 8.23711 7.58455 7.7468
2 0.792472 11.7726 12.2473
2 7.72555 3.02772 4.74041
1 3.27363 7.70999 7.23373
1 6.09158 2.58373 4.7753
1 2.33472 1.28621 8.62139
1 7.09502 4.81957 2.35462
1 7.63864 6.07475 7.18338
1 7.25552 12.3013 6.29342
1 9.31889 3.8567 4.57773
1 4.02162 12.0289 1.33574
1 1.11614 1.71768 5.45264
1 6.28558 3.20555 12.3765
1 11.7336 8.72798 7.34323
1 1.8065 10.1553 11.9701
1 10.1546 6.85628 5.05359
1 3.34553 2.42252 11.3284
1 11.3268 8.76055 2.32183
1 6.70821 11.7536 12.2647
1 8.66274 9.3543 7.5924
1 4.56784 6.69707 3.79265
1 4.68083 4.91814 6.39833
1 8.63422 2.9611 7.76908
1 3.52942 0.782032 4.16183
1 6.60443 10.7299 9.15189
1 0.772733 4.31535 4.14022
1 5.6462 3.40662 8.83835
1 0.859758 3.38219 0.749365
1 10.7624 0.92609 8.95787
1 9.60797 10.3396 0.639961
1 3.33341 9.98237 9.12681
1 10.802 9.76192 10.1936
1 2.58375 8.3161 2.18909
1 11.4012 0.917475 12.0961
1 1.28925 10.5272 4.42718
96
 Atoms. Timestep: 22000
2 0.545243 9.86507 6.31063
2 2.14729 3.69249 12.1166
2 10.859 6.94277 3.95721
2 7.85234 1.95227 12.4439
2 11.9347 2.03199 8.26546
2 5.96702 11.3298 7.42408
2 4.14922 8.36321 6.89742
2 5.30208 3.43371 6.6474
2 1.94743 8.17023 7.74931
2 2.98551 10.7676 11.736
2 2.63017 0.993601 3.18685
2 6.01886 3.73954 1.76197
2 0.932414 8.27101 2.41059
2 8.33107 11.0978 12.3899
2 8.75728 5.9397 6.04287
2 4.09922 1.99171 11.0613
2 10.7971 7.39918 6.79645
2 5.8907 11.6941 11.5821
2 2.1684 2.06022 6.28837
2 5.99854 3.27067 11.1598
2 3.23849 5.94808 7.59762
2 6.01823 3.28047 3.77502
2 8.2347 4.68227 3.48603
2 6.027 0.712363 5.74906
2 3.68598 8.93416 8.87332
2 4.79545 1.70581 4.03959
2 1.92553 3.15059 9.46354
2 5.62395 6.03878 3.29489
2 11.5322 8.7861 8.84131
2 8.034 10.2782 6.29212
2 9.31919 3.06624 6.23847
2 5.97849 5.51622 6.76851
2 1.09819 2.8466 4.72815
2 8.30753 4.718 8.13857
2 10.2429 9.46592 7.23922
2 3.21634 7.26572 3.23292
2 10.8182 3.81583 3.63026
2 7.23851 3.06919 8.56616
2 9.92908 9.11261 1.7975
2 7.43456 11.9492 9.77873
2 9.83027 9.27417 11.6731
2 4.74864 7.90683 5.28949
2 0.557384 2.23611 1.20044
2 9.48629 1.96881 8.53363
2 11.0332 11.5557 12.7396
2 2.216 0.634783 8.20554
2 10.853 11.1725 9.21484
2 1.99005 9.29959 4.05107
2 1.57174 4.5539 2.67951
2 4.34299 11.0836 8.8216
2 4.23816 12.1441 1.47424
2 1.83596 10.233 10.1122
2 1.76537 11.7551 4.96564
2 4.06547 5.67328 5.62642
2 2.41181 9.49639 1.05285
2 7.96276 1.31613 7.16715
2 11.8463 9.63799 10.8598
2 4.99664 3.94899 8.85233
2 11.1586 1.60744 10.8733
2 11.2525 9.20064 4.35392
2 9.02693 9.6006 9.06607
2 7.6646 7.60644 7.48727
2 1.18878 11.7625 11.925
2 7.64523 2.34191 5.02611
1 3.44282 7.49375 8.04444
1 5.70429 2.4313 5.33225
1 1.74663 2.03775 7.87889
1 6.54446 4.73676 3.03503
1 7.54657 5.84144 6.9885
1 7.23957 11.8105 6.45483
1 9.09815 3.35388 4.34007
1 4.26548 12.0068 11.8613
1 1.98315 1.45566 4.63999
1 6.57574 3.18203 12.6559
1 11.9781 8.54184 7.45616
1 1.43256 9.90963 11.9233
1 9.98586 6.80723 5.46952
1 2.71678 3.08956 10.9458
1 10.9636 8.36481 2.99956
1 7.85772 0.464822 11.381
1 8.35234 9.03598 7.41273
1 4.36688 6.56942 4.22429
1 4.50309 4.89295 7.35347
1 8.50986 3.00306 7.49995
1 4.20744 0.451708 3.1563
1 6.06094 11.6684 8.93334
1 0.554045 4.15975 3.89293
1 6.56264 3.94228 9.6027
1 1.56708 3.50759 1.16489
1 10.861 1.10231 9.42529
1 9.68925 10.3006 0.562389
1 2.88973 10.6722 8.93715
1 10.4628 9.55515 10.0579
1 2.40078 8.54965 2.56866
1 11.7742 1.20878 12.2126
1 0.866888 10.2329 4.86378
96