96
 Atoms. Timestep: 0
2 0 7.95642 4.74695
2 4.63304 0 11.358
2 0 4.63304 4.74695
2 7.95642 0 11.358
2 0 4.63304 8.47514
2 7.95642 0 1.8641
2 0 7.95642 8.47514
2 4.63304 0 1.8641
2 10.7421 8.43088 6.61105
2 4.15858 10.7421 0
2 1.84736 4.15858 6.61105
2 8.43088 1.84736 0
2 1.84736 8.43088 6.61105
2 8.43088 10.7421 0
2 10.7421 4.15858 6.61105
2 4.15858 1.84736 0
2 10.5201 6.29473 5.04003
2 6.29473 10.5201 11.6511
2 2.06934 6.29473 5.04003
2 6.29473 2.06934 11.6511
2 2.06934 6.29473 8.18207
2 6.29473 2.06934 1.57102
2 10.5201 6.29473 8.18207
2 6.29473 10.5201 1.57102
2 10.1594 8.65935 9.20274
2 3.93011 10.1594 2.59169
2 2.43004 3.93011 9.20274
2 8.65935 2.43004 2.59169
2 2.43004 8.65935 9.20274
2 8.65935 10.1594 2.59169
2 10.1594 3.93011 9.20274
2 3.93011 2.43004 2.59169
2 2.43004 3.93011 4.01936
2 8.65935 2.43004 10.6304
2 10.1594 8.65935 4.01936
2 3.93011 10.1594 10.6304
2 10.1594 3.93011 4.01936
2 3.93011 2.43004 10.6304
2 2.43004 8.65935 4.01936
2 8.65935 10.1594 10.6304
2 0 10.703 0
2 1.88643 0 6.61105
2 0 1.88643 0
2 10.703 0 6.61105
2 0 0 1.872
2 0 0 8.48305
2 0 0 11.3501
2 0 0 4.73905
2 11.2706 2.31295 2.18973
2 10.2765 11.2706 8.80078
2 1.31887 10.2765 2.18973
2 2.31295 1.31887 8.80078
2 1.31887 2.31295 2.18973
2 2.31295 11.2706 8.80078
2 11.2706 10.2765 2.18973
2 10.2765 1.31887 8.80078
2 1.31887 10.2765 11.0324
2 2.31295 1.31887 4.42131
2 11.2706 2.31295 11.0324
2 10.2765 11.2706 4.42131
2 11.2706 10.2765 11.0324
2 10.2765 1.31887 4.42131
2 1.31887 2.31295 11.0324
2 2.31295 11.2706 4.42131
1 11.0086 7.83654 8.10972
1 4.75292 11.0086 1.49867
1 1.5809 4.75292 8.10972
1 7.83654 1.5809 1.49867
1 1.5809 7.83654 8.10972
1 7.83654 11.0086 1.49867
1 11.0086 4.75292 8.10972
1 4.75292 1.5809 1.49867
1 1.5809 4.75292 5.11238
1 7.83654 1.5809 11.7234
1 11.0086 7.83654 5.11238
1 4.75292 11.0086 11.7234
1 11.0086 4.75292 5.11238
1 4.75292 1.5809 11.7234
1 1.5809 7.83654 5.11238
1 7.83654 11.0086 11.7234
1 10.1088 10.1088 3.30552
1 2.48067 10.1088 9.91657
1 2.48067 2.48067 3.30552
1 10.1088 2.48067 9.91657
1 2.48067 10.1088 3.30552
1 10.1088 10.1088 9.91657
1 10.1088 2.48067 3.30552
1 2.48067 2.48067 9.91657
1 0 1.60471 1.57853
1 10.9848 0 8.18958
1 0 10.9848 1.57853
1 1.60471 0 8.18958
1 0 10.9848 11.6436
1 1.60471 0 5.03252
1 0 1.60471 11.6436
1 10.9848 0 5.03252
96
 Atoms. Timestep: 2000
2 12.6345 8.35672 5.14663
2 3.68832 12.5465 12.7872
2 0.372435 4.16041 5.72641
2 7.21466 12.4989 11.0441
2 12.7981 4.65059 7.79765
2 6.07211 12.0679 3.13893
2 11.5123 8.6826 8.46978
2 4.44634 12.7688 1.59851
2 9.68648 8.14869 6.21341
2 4.81366 10.8317 -0.0595401
2 2.66824 5.30664 7.05734
2 7.9902 12.0401 2.0617
2 0.726403 8.37827 7.19818
2 7.77572 10.8356 13.1566
2 11.1896 4.82171 6.41187
2 4.16321 1.89552 0.24929
2 12.524 5.13371 3.59015
2 6.06639 10.9426 11.3963
2 1.48384 6.10139 4.98666
2 5.5377 1.11942 11.9654
2 0.833802 6.9977 8.68965
2 6.56051 0.913487 2.32219
2 11.2161 6.63262 7.94824
2 6.48208 10.1293 1.61639
2 9.2564 9.61597 8.64553
2 4.46817 10.1545 2.96989
2 0.977365 4.07436 9.74966
2 8.96427 1.5496 3.50351
2 1.43607 9.59405 8.63515
2 9.73425 10.7055 1.02353
2 10.9206 3.84218 8.78559
2 3.60046 1.39441 2.09428
2 2.546 3.73965 4.10624
2 6.43475 2.12939 9.39441
2 10.87 8.99058 2.84268
2 3.26571 10.1951 11.152
2 10.6778 3.21177 4.4599
2 3.01161 2.52917 11.7925
2 2.25431 9.04155 4.47366
2 8.96173 10.7524 10.5497
2 12.8014 11.244 12.9722
2 2.24858 0.147505 6.62198
2 12.4801 1.94025 -0.174621
2 11.985 12.2968 6.43648
2 0.49875 -0.0828027 0.4908
2 0.156984 0.614512 8.63967
2 11.9113 -0.0220266 11.9472
2 0.470254 -0.0221521 4.64099
2 11.3324 1.71894 2.04278
2 11.1895 12.0159 8.92226
2 2.12929 11.0774 1.63009
2 2.27191 1.55813 9.36662
2 1.20955 2.1134 2.14609
2 2.15966 12.1157 9.2616
2 12.4128 10.6261 1.40424
2 10.7964 1.09643 8.78631
2 1.24554 11.0574 11.4095
2 2.71002 0.796285 4.27568
2 11.7253 2.57646 10.9175
2 11.365 10.9573 3.74237
2 11.893 10.5466 10.2527
2 10.8884 0.50732 4.53612
2 0.45141 1.67175 11.0818
2 2.21465 11.4553 4.23714
1 10.2237 8.02064 7.86177
1 5.18465 11.14 1.61836
1 1.15664 5.56625 8.23913
1 7.61565 -0.0115825 3.38305
1 0.137142 8.44788 8.61105
1 8.10316 10.708 1.0776
1 11.1797 5.03022 7.8903
1 4.99153 1.13859 1.61348
1 2.2102 4.69696 5.5254
1 6.40113 0.983344 10.5092
1 11.0161 8.3591 4.63666
1 4.59442 11.0785 12.1258
1 11.8471 4.21283 5.01143
1 3.99685 0.980707 12.6827
1 1.39054 7.74591 5.28609
1 7.79467 11.1037 11.452
1 10.8479 10.5492 2.08345
1 2.16446 10.5986 10.0087
1 2.65818 1.95394 3.15874
1 10.8091 2.43022 9.5058
1 2.65887 10.287 3.32609
1 10.141 10.95 9.38748
1 10.4714 1.89743 3.46865
1 1.81517 2.77969 10.5599
1 12.7424 1.37213 1.51817
1 11.9258 -0.0458532 7.78197
1 0.52997 11.4439 0.756024
1 1.71732 0.361032 8.53343
1 12.5053 11.3759 11.5682
1 2.10775 12.7194 5.03304
1 12.2725 1.67068 11.9856
1 12.1989 12.1497 4.83272
96
 Atoms. Timestep: 4000
2 -0.121453 7.56853 4.52271
2 5.01443 -0.295512 12.0646
2 12.3565 4.80672 4.48262
2 7.88812 0.402441 12.2161
2 -0.216297 4.27496 8.8182
2 8.14008 2.55295 3.24849
2 12.5538 7.6318 8.57788
2 3.9376 -0.349967 0.950064
2 11.7057 8.05599 6.80131
2 4.44703 11.2658 13.1683
2 0.71603 4.75133 6.29879
2 8.13678 -0.0884183 2.24714
2 1.44203 7.94431 6.23492
2 7.96641 11.8442 0.1307
2 11.9111 3.82921 6.74226
2 4.24112 1.50414 -0.110952
2 9.95444 5.40698 4.75531
2 6.77485 11.2092 11.765
2 1.62281 5.78746 3.89387
2 5.84928 2.10848 11.6597
2 1.72562 6.14022 8.47263
2 6.47248 1.50265 1.21541
2 10.4273 5.98808 8.18297
2 5.88135 11.0723 1.678
2 10.3064 8.45793 9.85275
2 3.05666 10.5088 1.63127
2 1.88466 3.53973 8.92571
2 9.7257 1.77773 1.98571
2 1.21168 9.26732 8.61237
2 9.11071 10.5447 2.19049
2 10.8113 3.85875 9.77575
2 3.79672 1.6798 3.02304
2 1.07159 2.98235 4.17476
2 9.38877 2.34739 11.1661
2 10.7161 9.53669 4.21608
2 4.44037 11.5293 9.9388
2 10.5976 3.31766 3.55146
2 3.24587 1.09173 11.3159
2 1.52335 8.69785 3.29653
2 9.66106 11.2142 11.9217
2 12.4242 10.76 13.5822
2 0.687998 0.210564 6.11292
2 0.507165 1.44457 13.3775
2 11.3507 12.6972 6.44091
2 12.7754 -0.187248 0.966367
2 12.7516 -0.207419 8.37605
2 -0.0990519 12.8004 12.5461
2 0.191199 12.3641 4.69251
2 12.4571 1.78894 2.55148
2 10.6191 11.3219 9.20534
2 0.996266 10.269 1.7296
2 1.30452 0.827471 9.01756
2 1.84157 1.6604 2.1906
2 0.952021 11.9265 8.13901
2 11.3789 11.0606 1.8108
2 10.658 1.31038 8.84528
2 0.37227 11.3719 10.7817
2 2.24516 0.91805 4.79337
2 11.9299 1.50669 11.1702
2 11.0112 12.0984 3.75812
2 11.6965 10.0879 11.4278
2 11.191 1.21974 4.33586
2 1.36522 1.72066 11.0267
2 1.98242 11.2358 4.25667
1 10.9724 7.60774 8.22739
1 4.4131 11.3672 0.89047
1 1.10929 4.72214 7.93775
1 7.87678 1.52366 1.91115
1 0.899476 7.69136 7.86326
1 7.63847 11.7563 1.63373
1 11.3164 4.73784 8.56254
1 4.69329 0.880149 1.67215
1 0.51539 4.65199 4.55335
1 7.58986 1.82677 11.4005
1 11.8956 8.33962 5.11029
1 5.11635 11.5456 11.3137
1 11.0117 4.00138 4.95427
1 4.50385 1.46812 12.0441
1 1.42885 7.51604 4.31185
1 8.3435 11.7792 12.7067
1 10.6374 10.8693 3.17051
1 1.2106 10.5773 9.75097
1 2.25326 1.94441 3.65018
1 10.7465 2.32624 10.4446
1 1.98832 10.2657 2.95141
1 10.3658 10.0445 10.5352
1 10.8476 1.93711 3.00242
1 2.48975 2.03884 9.79849
1 0.427772 1.25652 1.33383
1 11.0856 12.9773 8.08859
1 -0.448626 11.3091 1.16615
1 0.802004 0.188587 7.83686
1 12.8487 11.1902 12.111
1 1.92035 12.63 5.04432
1 0.126687 1.24816 11.8128
1 11.9686 -0.390849 4.83907
96
 Atoms. Timestep: 6000
2 12.0718 7.93316 5.23172
2 4.55824 12.313 11.6987
2 12.6006 5.11795 4.30272
2 7.54761 12.3297 10.5769
2 12.1285 5.09381 8.4699
2 6.88091 1.55331 4.83482
2 11.7143 7.79463 8.24745
2 5.16801 12.231 2.02906
2 10.3802 7.41822 6.54453
2 4.8472 10.0474 0.180343
2 1.7191 4.44754 6.49358
2 8.38551 -0.248412 2.57287
2 0.670569 8.70226 6.60714
2 8.62211 11.3337 -0.210632
2 10.7777 4.45069 6.69282
2 5.5483 1.11259 -0.301454
2 10.419 6.19369 4.51818
2 6.99453 10.2336 12.1426
2 1.90365 6.55633 4.69212
2 5.19121 0.993909 10.5809
2 1.56825 6.09788 7.97683
2 5.89727 1.93568 2.30828
2 9.64323 6.26419 8.28817
2 6.98153 10.8231 1.80182
2 10.4531 9.18108 9.15057
2 4.32885 9.84651 2.62287
2 2.1973 3.69286 9.14444
2 8.78377 1.78772 2.49781
2 1.48364 8.81791 8.7682
2 10.1168 10.2218 2.16987
2 10.4021 3.63787 9.49285
2 3.5146 1.76074 2.24881
2 2.74141 3.91903 4.08402
2 8.11854 1.8688 10.6266
2 10.4437 9.15095 4.25126
2 3.51115 10.2082 11.199
2 10.0283 4.00789 4.11547
2 2.96552 1.60899 11.2576
2 1.75166 9.42712 3.81259
2 8.79778 10.6234 9.96477
2 0.0497645 11.0018 13.0748
2 2.49287 -0.172272 7.05569
2 0.450132 2.29608 -0.348913
2 11.3399 13.0397 6.63559
2 0.730697 0.0329156 0.79685
2 0.0475194 12.7032 8.44047
2 0.856501 0.186117 11.7111
2 0.255883 0.625028 5.39543
2 11.5349 2.67686 2.3081
2 9.80073 12.2575 7.62733
2 1.83109 10.729 1.87118
2 1.84485 1.28998 8.64623
2 0.652243 2.15098 2.67776
2 2.47803 11.4021 9.50432
2 12.1643 10.2124 1.70446
2 10.6228 1.5644 8.9614
2 1.03193 10.0775 10.6822
2 2.858 1.87128 4.62011
2 11.0193 1.98716 11.0971
2 11.8058 11.175 4.31848
2 11.3206 11.2198 10.7058
2 11.0459 1.3383 4.00236
2 0.599759 2.11931 10.4137
2 2.21829 12.0622 4.0529
1 10.0627 8.12932 8.03272
1 5.42241 10.507 1.65324
1 0.80888 4.49179 7.91984
1 7.40998 1.23553 3.15093
1 0.681355 7.77479 7.81683
1 8.40003 11.0034 1.81587
1 10.559 4.86111 8.11481
1 5.13668 0.99357 1.44214
1 1.60658 5.07724 4.86517
1 6.81505 0.847502 10.0973
1 10.3182 7.68936 5.0296
1 5.15777 10.764 11.9151
1 11.0338 4.845 5.15372
1 4.58089 1.11104 11.9512
1 0.940178 8.01468 4.75351
1 8.37662 11.0036 11.5707
1 11.1972 9.90648 3.37208
1 2.76103 9.92621 9.88644
1 2.30138 2.39714 3.24705
1 9.67567 2.42283 10.0978
1 2.94435 10.5437 3.32363
1 10.4165 10.8735 9.3934
1 10.2588 2.57847 3.19958
1 2.10811 2.24297 10.0647
1 -0.117121 1.33892 1.42173
1 11.1468 12.7308 8.37216
1 0.594478 11.1562 1.09792
1 1.65334 12.5721 8.53921
1 13.0549 11.3648 11.2303
1 1.85615 0.509675 5.55217
1 12.5804 1.79333 11.6165
1 11.1879 12.7196 5.00728
96
 Atoms. Timestep: 8000
2 12.7006 7.93158 5.59875
2 5.29702 0.154478 11.8767
2 -0.11037 4.52123 4.90388
2 8.08637 0.0126784 11.6739
2 -0.0967967 5.33268 7.82207
2 8.01239 1.34586 13.2258
2 12.5175 7.89699 8.78462
2 4.00898 -0.333829 1.54311
2 11.0056 7.55207 6.59654
2 4.42336 11.1498 -0.00223292
2 2.01063 4.77056 6.25858
2 8.00775 12.5196 1.69512
2 1.87227 7.91013 6.59452
2 8.2501 10.7461 0.278505
2 10.7395 4.77793 6.40244
2 4.70908 1.44932 -0.0186218
2 11.1518 6.52862 4.31208
2 6.60931 10.8618 11.8829
2 1.62698 5.95473 4.60216
2 6.6428 2.13292 11.4153
2 1.86586 6.46291 8.56933
2 6.32002 0.543724 0.935469
2 10.3123 5.97909 8.22281
2 5.99488 10.943 1.74412
2 10.4783 8.84101 9.28122
2 3.05902 11.0453 2.58406
2 2.43221 4.27175 9.45629
2 9.01259 2.04774 2.05158
2 2.14064 8.81593 9.5404
2 8.48617 10.1737 2.59245
2 10.5376 2.95859 8.53188
2 4.02911 1.78921 2.73393
2 1.92114 2.94108 4.1567
2 9.49735 2.63447 10.7655
2 10.3325 9.11941 3.81158
2 4.09277 11.2537 11.1059
2 10.6825 3.76184 3.73257
2 4.08547 2.41604 10.5369
2 1.8848 8.89782 3.65699
2 9.53014 10.8722 11.5549
2 -0.00267786 10.1036 13.6202
2 0.915713 0.628831 6.26145
2 0.407708 1.99113 -0.163054
2 10.3623 0.216645 6.62074
2 12.705 12.3277 0.495777
2 12.6545 12.5342 8.66838
2 0.359534 12.6847 12.073
2 12.1915 0.244644 4.47235
2 11.9518 1.82152 2.18098
2 11.015 10.9717 8.74352
2 0.666084 11.3473 2.47736
2 1.98548 1.51914 8.75806
2 1.28592 1.8382 2.00694
2 1.93192 11.9402 8.94264
2 11.1879 10.3401 1.56927
2 9.96382 0.754743 8.77364
2 0.984799 10.8175 10.8459
2 2.17342 0.398349 3.90616
2 11.4675 1.75132 11.1805
2 10.4563 11.9187 4.04483
2 11.4841 10.1491 11.0424
2 9.83614 1.40332 4.21957
2 1.12074 2.60168 11.1496
2 1.55606 11.1299 4.97886
1 10.8914 7.64258 8.24062
1 4.37655 11.2232 1.62058
1 1.73962 4.98658 7.95857
1 8.05314 1.06673 1.22413
1 1.31674 7.77801 8.43743
1 7.53634 10.9531 1.92088
1 11.2842 4.36793 8.01338
1 4.82283 1.03079 1.42876
1 1.32875 4.1999 4.72089
1 8.15308 1.79867 11.6421
1 10.7695 7.94568 4.94802
1 5.07355 11.45 12.3018
1 11.3995 4.8137 4.57638
1 4.98916 1.82629 12.0795
1 1.39214 7.51468 5.16336
1 8.13172 11.3972 12.2582
1 10.2207 10.5454 3.10209
1 2.6038 10.6432 10.0832
1 2.28973 1.71146 3.13337
1 10.523 1.98641 9.83454
1 1.76093 10.4606 3.49376
1 10.2593 10.2309 10.0456
1 10.3318 2.38435 2.95339
1 2.63712 2.75873 9.87357
1 -0.0544319 1.2193 1.17102
1 11.0633 12.7038 8.18209
1 12.9136 10.736 1.39135
1 1.03037 0.264295 8.23883
1 0.00539334 10.7625 12.0734
1 0.780033 -0.359258 5.00294
1 0.139842 1.59095 12.1296
1 10.6781 0.458669 5.19812
96
 Atoms. Timestep: 10000
2 -0.402152 8.7163 5.31699
2 4.46133 11.9651 12.136
2 -0.36924 4.33419 5.71856
2 8.02636 12.4552 11.5978
2 0.176127 4.57696 9.12744
2 8.44469 1.228 13.5599
2 12.3054 7.68121 8.01121
2 4.98147 -0.181504 1.94492
2 10.8274 7.54158 6.68173
2 5.2337 10.524 -0.0208847
2 1.82454 5.34617 6.87042
2 7.43339 0.180682 2.10866
2 1.34971 8.47828 7.2717
2 8.36507 11.1066 -0.25758
2 10.8796 4.79648 7.19752
2 4.11819 1.01758 13.139
2 10.548 6.24329 5.04653
2 6.73433 10.6826 11.1887
2 2.08818 7.07795 4.98936
2 6.21849 1.66525 11.7935
2 1.46795 6.34344 9.18492
2 6.26657 2.17246 1.11544
2 10.8295 6.4801 9.21303
2 6.33781 11.2506 2.61551
2 10.7981 9.31776 8.90568
2 3.57994 10.3421 2.33109
2 2.66208 3.62618 9.08874
2 8.8851 2.87695 2.29115
2 1.92255 8.74086 9.41253
2 8.86303 10.5449 2.59169
2 10.1074 3.75602 9.18409
2 3.66733 1.80059 1.91418
2 0.130731 5.70123 4.03439
2 9.22149 1.9006 11.2429
2 10.8203 8.83546 3.7918
2 4.18351 9.90643 10.5189
2 10.7235 3.49686 4.23321
2 3.32092 0.825824 10.9843
2 1.46623 8.73636 3.72164
2 9.44497 10.054 11.3462
2 12.7265 10.7235 -0.164987
2 0.949573 12.2274 6.2391
2 12.0339 1.35362 12.9798
2 11.0245 0.0589126 6.91924
2 0.0534973 12.7793 1.19856
2 0.0485349 -0.312803 8.7977
2 0.424496 -0.172077 12.1224
2 12.4937 0.00289679 4.61183
2 11.4093 2.50948 1.93625
2 11.3375 11.9119 9.48692
2 0.612711 9.70431 1.91089
2 1.99089 0.844665 8.31026
2 0.847132 1.86414 1.38536
2 2.37983 11.4229 8.85375
2 11.0714 10.6883 1.52039
2 10.333 1.32064 9.01055
2 1.38055 10.3306 11.2579
2 1.79859 0.634525 3.57334
2 11.6683 2.39111 10.4967
2 10.3081 11.53 4.12321
2 11.8453 11.0568 11.3664
2 10.4604 5.0054 2.09174
2 1.17517 1.96611 10.8349
2 0.355706 11.5622 3.3047
1 10.5828 7.73996 8.23863
1 4.90289 11.0282 1.51572
1 1.80997 4.78756 8.38721
1 8.05735 1.79873 1.37301
1 0.759862 7.85491 8.56827
1 7.98457 11.5839 1.77801
1 11.5739 4.96591 8.94047
1 4.81085 1.18287 1.03023
1 1.38764 5.611 5.48165
1 7.77555 1.07854 11.8182
1 11.4869 7.70781 4.92878
1 5.30356 10.2411 11.8396
1 10.8331 4.58147 5.57124
1 4.79445 0.525037 11.812
1 1.30963 8.46175 5.58979
1 8.21405 10.859 11.9125
1 10.4725 10.2445 2.88786
1 2.38813 10.1862 10.0264
1 2.10724 1.12299 2.05008
1 10.2768 2.48428 10.1117
1 2.2291 9.49792 2.28968
1 10.6746 10.4753 10.2967
1 10.3247 3.53025 2.71505
1 2.90672 1.79184 9.76713
1 12.4565 1.30491 0.97136
1 11.4454 0.21297 8.51335
1 12.7498 11.317 1.6799
1 1.48038 12.4563 7.92358
1 0.239288 11.2523 12.3155
1 0.953778 12.4482 4.46311
1 -0.197389 1.42922 11.4296
1 11.1321 12.5869 5.21199
96
 Atoms. Timestep: 12000
2 0.0287363 8.13871 5.08657
2 4.44922 13.0484 11.8682
2 12.058 4.53151 3.89104
2 7.8774 0.158409 11.5358
2 12.4225 5.64171 8.95725
2 7.70322 1.58825 0.204132
2 0.021794 8.11928 8.84623
2 4.96895 -0.254829 1.86943
2 10.7709 8.5848 6.89792
2 4.93628 11.269 0.134691
2 2.15835 4.56725 7.66038
2 8.79896 12.3175 1.86135
2 2.04179 7.54707 6.66281
2 8.98234 10.9741 12.7915
2 11.0457 4.84603 6.36648
2 4.98726 1.29251 0.122765
2 10.223 6.58088 5.17614
2 6.39025 11.135 11.2443
2 1.16938 5.87053 5.33921
2 6.26221 2.43629 11.7835
2 2.10041 6.72734 9.24595
2 6.45294 1.59559 2.31708
2 10.6272 6.57054 8.43754
2 6.99618 10.487 1.4118
2 10.4302 9.06892 9.48482
2 4.49626 10.1042 2.47458
2 1.50742 4.34128 10.1617
2 8.78047 2.49056 2.02137
2 2.25018 9.26673 8.93534
2 9.47958 9.45305 1.47804
2 10.5304 3.6912 8.68211
2 3.64108 1.54856 2.63857
2 2.23491 3.46027 4.61511
2 8.67985 2.20257 10.3427
2 11.1401 9.20564 4.11686
2 4.03452 10.5907 11.0024
2 9.81916 3.44874 4.38427
2 3.42908 2.53921 10.834
2 2.70171 8.12922 3.8361
2 8.92297 10.7893 10.0784
2 0.253389 10.8561 13.4494
2 1.18616 12.4398 6.57112
2 12.0673 1.81897 -0.0171537
2 10.5701 12.0625 6.46225
2 12.6968 12.5387 1.22506
2 -0.0247155 -0.0855334 8.05016
2 12.6239 0.0891289 12.6198
2 11.7744 -0.0962596 4.46631
2 11.0254 1.53684 2.41574
2 10.9909 11.3625 8.44878
2 2.2516 9.84021 1.80973
2 1.83002 1.69073 8.90842
2 0.520403 1.78314 2.56727
2 2.76467 11.8558 8.53813
2 11.9623 9.88914 2.383
2 10.1764 1.45344 8.79108
2 1.29053 11.0565 10.6937
2 1.63716 0.533397 4.72579
2 11.3827 1.42063 10.8636
2 9.89823 10.8593 4.21328
2 11.147 11.0559 11.2275
2 9.94471 0.878035 4.28832
2 1.30911 2.44721 11.3465
2 0.515923 11.5287 3.20348
1 11.2439 8.15294 8.49621
1 5.55623 11.1011 1.67043
1 1.21078 5.3447 8.99736
1 8.00499 0.943502 1.73118
1 1.58083 8.14059 8.1444
1 8.72265 10.9135 0.879325
1 11.0791 4.89956 7.98497
1 4.91584 1.31855 1.62664
1 0.759554 4.406 4.76429
1 7.69694 1.64124 11.854
1 11.1478 8.01577 5.39606
1 4.90958 11.1534 12.0802
1 10.6738 4.85019 4.77865
1 4.76736 1.65619 11.7915
1 1.555 7.76182 5.2233
1 8.01065 11.4297 11.2294
1 10.3973 9.49785 2.82881
1 2.78321 10.619 9.77557
1 1.84237 1.89338 3.46283
1 10.2797 2.64466 9.88728
1 3.19938 9.09185 2.65872
1 10.3874 10.6799 9.72992
1 9.93496 2.24023 3.26152
1 2.043 2.80074 10.0965
1 12.2582 1.26686 1.45414
1 11.1901 0.155029 7.71443
1 0.544891 10.7656 1.44908
1 1.94915 0.051178 7.76812
1 12.635 11.4975 11.7333
1 0.429366 12.3099 4.94885
1 12.6384 1.75234 11.8476
1 10.2367 12.4053 4.86444
96
 Atoms. Timestep: 14000
2 12.0154 7.86824 5.03053
2 4.69575 0.237384 12.03
2 11.959 5.1469 4.34211
2 8.47374 -0.0574044 11.4618
2 12.2635 4.79307 8.65218
2 7.57343 2.14878 12.8572
2 -0.143132 7.744 8.71746
2 4.02842 0.208018 1.36601
2 10.751 7.75798 6.86872
2 4.74969 11.2479 0.116898
2 0.571818 4.70988 6.83743
2 8.2237 0.3409 1.18135
2 0.913582 9.37983 6.13796
2 9.04435 11.0236 13.0237
2 10.7839 4.5456 6.51931
2 4.65103 2.33566 -0.342986
2 9.98987 6.56452 5.02197
2 6.39206 11.5736 11.2726
2 1.39285 6.71595 4.82754
2 6.07882 1.46396 10.8218
2 1.17806 5.49213 9.58151
2 6.06015 1.46389 1.47088
2 10.6741 6.19119 8.73975
2 6.57715 11.3496 1.43515
2 10.1533 8.32689 9.19431
2 4.50222 10.8413 3.08285
2 1.80109 2.81805 9.54302
2 8.6298 2.04302 2.29974
2 2.56558 8.42749 9.59141
2 9.7671 10.6629 2.25053
2 10.6182 2.95021 8.89361
2 3.912 2.77266 2.93804
2 1.64049 4.11045 4.20414
2 8.57525 1.48576 9.74518
2 10.4602 9.57429 4.55031
2 4.10649 10.5132 10.9909
2 9.87964 4.09907 3.90818
2 3.26538 1.70315 10.8198
2 2.37676 9.14712 4.68479
2 8.93781 10.616 10.2881
2 0.841322 11.0388 -0.221637
2 2.58927 0.0742106 6.66678
2 0.114205 1.70473 13.2208
2 11.1327 12.6423 6.19801
2 0.557385 0.283807 1.82147
2 -0.12472 11.6344 7.75323
2 12.3638 11.881 11.3814
2 0.495619 0.0253909 4.90326
2 11.4415 2.75194 1.75869
2 10.4731 10.7993 8.54381
2 2.3127 10.6684 2.42979
2 1.20814 0.526766 8.58805
2 1.24505 2.59474 2.06973
2 2.33192 11.1498 9.00068
2 12.4319 10.5209 2.04396
2 10.8042 0.698954 8.57641
2 1.19079 9.91545 10.939
2 2.05599 1.42487 4.02048
2 10.9775 0.791678 11.2988
2 11.578 11.7376 4.20309
2 11.3013 9.69735 11.2428
2 10.9744 1.87393 4.00716
2 0.123126 1.00449 10.5433
2 2.78492 11.9138 4.22959
1 11.2285 7.5652 8.28057
1 4.82695 11.6729 1.88607
1 0.886013 4.1821 8.60164
1 7.63096 1.73114 0.726008
1 1.1984 7.16565 9.48953
1 8.59498 11.6642 1.2108
1 10.6138 4.68304 8.37882
1 4.59509 1.85926 1.22616
1 0.580571 5.15926 5.08693
1 7.6809 1.24298 11.3562
1 10.4343 8.13892 5.35641
1 4.92075 11.4974 11.9349
1 10.3318 5.09136 5.07205
1 4.67542 1.85929 11.63
1 0.702837 8.43206 4.96125
1 7.92078 11.0654 11.3306
1 10.9815 10.4572 3.272
1 2.7423 9.8604 10.3637
1 2.13497 2.92317 3.43806
1 10.1535 1.46003 10.0409
1 3.27444 10.2099 3.97295
1 10.2668 9.79768 10.0446
1 10.063 2.66354 2.59524
1 1.65494 1.43043 10.2217
1 -0.0702709 2.00858 1.4794
1 11.2434 12.0983 8.03582
1 0.719335 11.3282 1.43248
1 1.45233 12.1165 7.98972
1 -0.10538 10.3591 12.1092
1 2.27383 0.321531 5.18598
1 12.3456 0.756386 11.8217
1 11.7947 0.253144 4.69287
96
 Atoms. Timestep: 16000
2 0.242038 8.32914 4.70165
2 4.9046 12.4625 11.711
2 12.3939 4.0231 5.04203
2 8.15466 0.169928 11.5912
2 0.532556 4.7481 9.00295
2 7.23215 2.06574 0.162405
2 0.172807 8.47573 7.84842
2 3.46601 12.2811 0.753844
2 10.9973 8.37785 6.03329
2 4.28131 10.5675 12.7476
2 2.26473 4.16099 6.64444
2 7.38679 12.4075 2.10659
2 1.88756 8.36192 6.31035
2 8.1761 10.8397 -0.0646153
2 11.0994 4.99617 6.74489
2 5.13381 1.01208 13.5674
2 11.3987 6.22645 4.41756
2 6.88102 10.7415 11.297
2 1.38317 6.26885 4.81871
2 6.48914 2.04394 11.8022
2 2.26667 6.11394 8.00756
2 5.6277 0.663309 1.87653
2 11.0056 6.50964 8.07303
2 5.71249 10.2434 0.813396
2 11.4183 9.32432 9.32047
2 3.53378 9.80639 1.77977
2 2.64242 3.69502 9.61958
2 8.52072 1.44942 2.67387
2 1.71046 9.20634 9.08113
2 8.29372 9.5089 2.7252
2 10.6925 4.64711 9.63322
2 2.76466 2.49501 1.80653
2 1.56435 3.18244 4.76183
2 8.77505 2.56575 10.7504
2 10.493 8.54511 3.78694
2 3.98878 10.5132 10.3773
2 10.1396 3.36346 4.42823
2 3.7095 2.12491 11.0173
2 2.44739 8.8381 3.54454
2 8.98141 10.9505 10.6154
2 12.427 11.7487 0.250692
2 2.42691 -0.0895836 6.39563
2 -0.221032 1.70103 0.117409
2 11.3194 12.6496 6.65875
2 11.7605 12.9893 2.0579
2 0.0917972 0.444018 7.63856
2 -0.157573 0.383112 11.9254
2 0.0247252 12.3334 4.60599
2 10.9274 2.21952 2.34028
2 11.1437 11.854 9.13793
2 0.580845 10.1815 1.92735
2 2.4982 1.20003 9.04275
2 0.485362 1.6619 2.64507
2 2.55682 11.211 8.41427
2 10.9644 10.1093 1.96192
2 10.6788 1.5196 9.18054
2 1.43013 10.7304 11.6229
2 1.91011 1.05279 4.04544
2 11.1599 1.9466 11.3322
2 10.7985 10.797 4.34431
2 11.8393 11.0457 11.6939
2 10.5926 0.951533 4.3041
2 1.13452 2.92337 11.7051
2 2.25904 11.1596 3.68915
1 11.2958 8.32464 7.9919
1 4.19303 10.7203 0.872373
1 2.04027 4.58225 8.21302
1 7.09318 1.23019 1.65901
1 1.75393 8.03556 7.98068
1 7.24626 10.8005 1.49681
1 11.7126 5.05936 8.40772
1 4.08681 1.06352 1.29059
1 1.06423 4.65234 5.45966
1 7.90358 1.56465 12.3043
1 11.6132 7.75301 4.74559
1 5.28515 10.9898 11.5393
1 10.6925 4.61851 5.35554
1 5.08641 1.33686 11.7215
1 1.73112 7.90487 4.68944
1 8.2582 11.4204 11.8459
1 10.1188 9.8009 3.20536
1 2.25715 10.4244 10.0264
1 1.75495 2.31362 3.15121
1 10.3026 2.84489 10.221
1 2.01632 9.75249 2.32805
1 10.7233 10.6244 10.2136
1 9.82968 2.05725 3.4497
1 2.23159 2.39185 10.3713
1 12.1884 1.59896 1.70875
1 11.3911 0.365663 8.17417
1 12.3896 11.1045 1.64542
1 1.96836 -0.0654686 7.83411
1 0.196576 11.7181 12.3192
1 1.76864 12.4452 4.72353
1 12.7859 2.0432 12.233
1 11.1597 12.3797 4.70404
96
 Atoms. Timestep: 18000
2 12.2762 8.30269 5.15468
2 5.16689 12.5929 11.8383
2 0.411998 4.46456 5.00688
2 8.27552 12.7539 11.3434
2 0.356334 4.28541 7.93962
2 8.40179 0.642852 -0.0951568
2 12.2373 8.12587 8.78581
2 4.86808 12.3866 0.527818
2 10.4159 8.17606 6.74209
2 4.08643 10.3175 13.2716
2 2.57981 4.88229 6.78935
2 7.85212 12.05 1.83516
2 0.663588 8.35402 7.14279
2 8.00993 10.59 13.0688
2 11.8166 4.16736 6.59868
2 4.21712 1.1748 0.0167146
2 10.9812 5.96372 4.84165
2 6.07081 10.9521 10.6914
2 1.34014 6.27093 5.48236
2 6.64596 1.92464 11.8232
2 1.86539 6.38416 8.6731
2 6.498 0.779126 2.21218
2 11.3164 6.22909 8.45633
2 5.71114 10.3123 1.07031
2 10.2214 9.07073 8.64838
2 3.28063 10.5232 2.4351
2 2.97631 3.98886 9.47249
2 9.6012 1.56219 2.27699
2 1.89922 8.89414 9.0985
2 8.33854 9.99218 2.37748
2 11.3894 4.01233 9.86246
2 3.77622 1.68443 2.58226
2 2.063 3.48767 4.14508
2 9.092 2.44215 11.0198
2 10.0057 8.56191 4.04454
2 3.5258 10.5197 10.4191
2 10.6286 3.76275 3.8622
2 4.00141 2.14325 11.0242
2 1.02356 9.12354 4.53616
2 8.77705 10.694 10.1059
2 12.1603 11.0848 -0.190607
2 1.15298 0.785596 6.22984
2 -0.0478046 1.76536 -0.136986
2 10.7723 0.90329 6.66256
2 0.153555 12.6889 1.76435
2 12.6958 0.203531 7.83433
2 0.102326 0.0974782 11.6145
2 12.2841 12.7637 4.9913
2 12.6064 2.14001 2.33589
2 11.0079 11.7923 8.33942
2 1.01709 10.1336 2.08593
2 1.36801 0.981815 9.58096
2 1.6043 1.99579 1.84832
2 1.55266 11.6581 8.25267
2 11.4555 10.07 2.47771
2 10.3775 1.49195 9.40488
2 1.10139 11.4882 10.8022
2 1.89665 0.762468 3.7467
2 11.8368 2.45415 11.7265
2 9.93225 11.4381 4.2788
2 10.7923 11.1994 11.0851
2 10.7317 1.14595 4.31614
2 1.47336 2.43626 11.0761
2 1.39608 11.501 4.54312
1 10.9381 7.79095 8.11568
1 4.21155 10.9442 1.12342
1 1.9071 4.80527 8.18775
1 8.3029 0.587607 1.7074
1 0.945301 7.75248 8.52014
1 7.46123 10.7183 0.900672
1 11.8966 4.66014 8.2991
1 4.9894 1.03193 1.56792
1 2.13722 4.71674 5.29398
1 8.13411 1.49648 11.837
1 10.8905 7.77224 5.23836
1 4.33774 11.2391 11.6616
1 11.8908 4.38777 5.00505
1 4.79852 1.33035 12.1437
1 0.878147 7.82432 5.44851
1 7.8301 11.1291 11.2627
1 9.94561 9.98971 3.14288
1 1.92263 10.6359 9.62905
1 2.47531 2.23979 3.08488
1 10.7816 2.60622 10.4756
1 1.99779 10.2631 3.52735
1 10.1447 10.768 9.3173
1 10.8763 2.25823 3.05285
1 2.63296 2.33671 10.1446
1 0.510988 1.08391 1.11306
1 10.9949 0.708646 8.20578
1 12.5636 11.1579 1.64664
1 1.2491 0.282325 7.86254
1 12.368 11.5935 11.7047
1 0.780572 0.115253 4.78568
1 0.294091 1.53981 11.9809
1 10.7855 -0.158344 5.36473
96
 Atoms. Timestep: 20000
2 -0.557308 7.55363 5.07965
2 3.98464 -0.209289 11.6682
2 -0.157006 4.25999 4.80258
2 8.06151 0.412161 12.0847
2 12.7141 4.72591 8.71595
2 7.92818 2.62996 -0.398654
2 0.131501 8.83366 8.65331
2 4.75664 -0.315195 1.37289
2 11.8834 8.79447 6.71015
2 4.36004 11.627 13.4634
2 1.30686 3.70741 6.62254
2 8.38852 0.557244 1.35698
2 1.48375 7.36661 6.75812
2 8.1674 11.4284 -0.246673
2 10.8007 4.61491 6.64172
2 4.41054 1.6111 13.3449
2 10.8962 6.61588 4.82531
2 6.40186 11.3848 11.489
2 1.49641 5.67724 4.56265
2 5.98599 2.19754 11.7924
2 1.71333 6.13817 8.49237
2 6.64694 1.49478 1.60073
2 11.1867 6.77444 8.60227
2 6.29739 11.5792 1.58252
2 11.0661 9.66061 9.09497
2 3.39878 10.2209 1.98549
2 1.5944 2.918 9.06816
2 9.15992 2.01561 2.71735
2 2.14525 8.69061 9.58954
2 8.77751 11.1512 2.77116
2 10.7346 3.82057 9.65025
2 3.73908 1.82762 1.8839
2 2.19236 3.00981 3.82779
2 8.85759 2.63209 10.7227
2 10.4852 9.25386 3.91503
2 3.3832 10.1867 11.2634
2 11.2225 3.69465 4.11309
2 3.19737 1.84209 10.5137
2 1.98144 8.36622 4.07009
2 9.02571 11.1035 11.1641
2 -0.241241 11.2141 -0.13719
2 0.978614 12.1146 6.18641
2 -0.00746436 2.04099 -0.276292
2 11.6107 12.2981 6.36342
2 12.9535 -0.233506 1.93311
2 12.9415 12.3311 8.51071
2 12.3814 0.0626204 12.3398
2 -0.0579707 12.3944 3.84982
2 11.5003 1.44418 2.15701
2 10.4872 11.813 9.07498
2 0.498621 10.0445 1.58775
2 1.32104 0.416431 9.22715
2 1.39172 1.5021 2.33318
2 1.86479 10.7648 8.67037
2 11.5142 10.9159 2.18108
2 10.9707 0.928038 9.00071
2 1.22993 10.8546 11.3632
2 2.41793 0.121835 4.01537
2 11.6013 2.19741 10.4943
2 10.8285 11.4046 4.46971
2 11.2976 10.7639 11.2398
2 10.5071 0.345906 4.44471
2 0.457485 2.23213 10.8432
2 1.8415 10.9143 3.6209
1 11.6131 8.47195 8.24278
1 4.71179 11.283 1.2283
1 1.00598 4.30887 8.20876
1 7.88014 2.23845 1.32289
1 1.60247 7.77237 8.53461
1 8.00286 11.974 1.41312
1 10.9812 4.80991 8.30209
1 5.10408 1.46265 1.11083
1 1.49877 4.26328 5.14541
1 8.0053 2.00565 11.9498
1 11.2391 8.39843 5.21847
1 4.78242 11.3427 11.8361
1 11.4171 5.12765 5.26687
1 4.59618 1.39232 11.7928
1 1.10301 7.13745 5.00047
1 8.01947 11.9747 12.0985
1 10.1653 10.7164 3.21289
1 2.07531 10.0586 10.1607
1 2.75511 1.55153 3.23832
1 10.2864 2.32625 9.82149
1 1.78428 9.6289 2.51366
1 10.3305 10.653 10.0977
1 10.7632 1.84149 3.54246
1 1.59933 1.82744 10.0112
1 -0.288214 1.27371 1.49054
1 11.3963 12.6963 8.08267
1 12.7635 11.4172 1.40603
1 1.13973 12.3009 7.93365
1 12.6818 11.6487 12.0556
1 1.37161 12.1225 4.48824
1 12.4934 1.70969 12.0774
1 11.8114 12.5858 4.66295
96
 Atoms. Timestep: 22000
2 12.6328 7.98574 4.51962
2 4.54177 -0.148374 12.5668
2 12.6338 5.4289 4.34077
2 8.07547 0.0383515 11.774
2 12.6552 4.55679 8.41248
2 7.62977 2.66912 13.1855
2 12.8573 7.70479 7.92543
2 4.64163 -0.0881977 1.62329
2 10.4295 8.0432 6.47237
2 4.85004 10.8704 13.5313
2 1.76573 4.54507 6.73316
2 8.20996 0.282186 1.12508
2 1.81968 8.03778 6.89514
2 8.44908 10.8898 -0.140873
2 10.7568 4.21253 6.21408
2 4.12788 1.85348 0.11013
2 10.359 6.35009 4.23689
2 6.49516 11.6731 11.8023
2 1.74321 6.32464 5.69304
2 6.17351 1.2221 12.4234
2 1.70782 6.43116 8.63509
2 6.31845 1.76273 1.30609
2 10.8459 6.32129 7.43494
2 6.25232 11.2041 1.72672
2 10.3876 8.11513 9.46816
2 3.7363 10.5402 2.4436
2 1.7507 3.92642 9.46672
2 9.71023 2.38443 1.51392
2 1.84037 8.75656 9.56893
2 8.71048 10.8155 2.59871
2 11.0178 3.48224 9.48429
2 3.57295 2.01049 2.72737
2 1.80035 4.35738 3.29584
2 9.05658 1.84584 10.8778
2 10.2736 9.20433 3.68355
2 3.75955 10.5406 10.9244
2 10.5284 3.38624 3.6079
2 3.44964 1.93756 11.0685
2 1.57043 9.37685 4.50374
2 9.06416 10.5732 10.8585
2 0.00306316 10.6482 -0.228104
2 0.856757 0.00610695 6.70739
2 12.4846 1.0273 -0.282543
2 11.0811 12.5468 6.41099
2 0.210681 12.6144 1.84034
2 -0.318962 12.5562 8.46471
2 -0.157507 12.3835 12.2621
2 0.0286514 -0.111124 4.11005
2 11.9677 1.81983 1.74472
2 10.5182 10.9703 9.32144
2 1.26299 10.4226 2.08587
2 1.53581 0.81395 9.02669
2 1.39469 2.07471 1.63099
2 2.40349 11.5321 9.01025
2 11.6365 11.1938 2.20373
2 10.6151 0.542067 8.94343
2 1.01591 10.7763 11.2261
2 1.74947 1.47852 4.16743
2 12.2253 1.27221 10.4568
2 10.9725 11.526 4.0998
2 11.7868 9.60679 11.2859
2 10.5039 1.09546 4.05801
2 1.13978 1.95434 11.7016
2 2.10454 11.7652 4.43755
1 11.1806 7.6883 8.12944
1 4.74389 11.2748 1.26686
1 1.08408 4.95391 8.22376
1 7.78882 2.1633 1.13423
1 1.28123 7.95635 8.36831
1 8.03579 11.6354 1.42372
1 11.0255 4.72522 7.82456
1 4.60891 1.50383 1.59463
1 1.3182 4.79899 4.90537
1 7.70899 1.69005 12.001
1 10.7165 7.78718 4.76711
1 4.56062 11.5792 12.0073
1 10.8234 4.88229 4.68126
1 4.58869 1.47207 12.2736
1 1.14053 8.01199 5.35991
1 8.26143 11.3502 12.1433
1 10.3803 10.599 3.04368
1 2.26368 10.2057 10.1199
1 2.04879 2.70259 2.85272
1 10.5956 1.79452 9.98843
1 2.39017 10.2178 3.11969
1 10.1876 9.38852 10.4798
1 10.8825 2.07753 2.89581
1 2.27992 2.4838 10.0882
1 0.167813 0.87016 1.27223