96
 Atoms. Timestep: 0
2 0 7.95642 4.74695
2 4.63304 0 11.358
2 0 4.63304 4.74695
2 7.95642 0 11.358
2 0 4.63304 8.47514
2 7.95642 0 1.8641
2 0 7.95642 8.47514
2 4.63304 0 1.8641
2 10.7421 8.43088 6.61105
2 4.15858 10.7421 0
2 1.84736 4.15858 6.61105
2 8.43088 1.84736 0
2 1.84736 8.43088 6.61105
2 8.43088 10.7421 0
2 10.7421 4.15858 6.61105
2 4.15858 1.84736 0
2 10.5201 6.29473 5.04003
2 6.29473 10.5201 11.6511
2 2.06934 6.29473 5.04003
2 6.29473 2.06934 11.6511
2 2.06934 6.29473 8.18207
2 6.29473 2.06934 1.57102
2 10.5201 6.29473 8.18207
2 6.29473 10.5201 1.57102
2 10.1594 8.65935 9.20274
2 3.93011 10.1594 2.59169
2 2.43004 3.93011 9.20274
2 8.65935 2.43004 2.59169
2 2.43004 8.65935 9.20274
2 8.65935 10.1594 2.59169
2 10.1594 3.93011 9.20274
2 3.93011 2.43004 2.59169
2 2.43004 3.93011 4.01936
2 8.65935 2.43004 10.6304
2 10.1594 8.65935 4.01936
2 3.93011 10.1594 10.6304
2 10.1594 3.93011 4.01936
2 3.93011 2.43004 10.6304
2 2.43004 8.65935 4.01936
2 8.65935 10.1594 10.6304
2 0 10.703 0
2 1.88643 0 6.61105
2 0 1.88643 0
2 10.703 0 6.61105
2 0 0 1.872
2 0 0 8.48305
2 0 0 11.3501
2 0 0 4.73905
2 11.2706 2.31295 2.18973
2 10.2765 11.2706 8.80078
2 1.31887 10.2765 2.18973
2 2.31295 1.31887 8.80078
2 1.31887 2.31295 2.18973
2 2.31295 11.2706 8.80078
2 11.2706 10.2765 2.18973
2 10.2765 1.31887 8.80078
2 1.31887 10.2765 11.0324
2 2.31295 1.31887 4.42131
2 11.2706 2.31295 11.0324
2 10.2765 11.2706 4.42131
2 11.2706 10.2765 11.0324
2 10.2765 1.31887 4.42131
2 1.31887 2.31295 11.0324
2 2.31295 11.2706 4.42131
1 11.0086 7.83654 8.10972
1 4.75292 11.0086 1.49867
1 1.5809 4.75292 8.10972
1 7.83654 1.5809 1.49867
1 1.5809 7.83654 8.10972
1 7.83654 11.0086 1.49867
1 11.0086 4.75292 8.10972
1 4.75292 1.5809 1.49867
1 1.5809 4.75292 5.11238
1 7.83654 1.5809 11.7234
1 11.0086 7.83654 5.11238
1 4.75292 11.0086 11.7234
1 11.0086 4.75292 5.11238
1 4.75292 1.5809 11.7234
1 1.5809 7.83654 5.11238
1 7.83654 11.0086 11.7234
1 10.1088 10.1088 3.30552
1 2.48067 10.1088 9.91657
1 2.48067 2.48067 3.30552
1 10.1088 2.48067 9.91657
1 2.48067 10.1088 3.30552
1 10.1088 10.1088 9.91657
1 10.1088 2.48067 3.30552
1 2.48067 2.48067 9.91657
1 0 1.60471 1.57853
1 10.9848 0 8.18958
1 0 10.9848 1.57853
1 1.60471 0 8.18958
1 0 10.9848 11.6436
1 1.60471 0 5.03252
1 0 1.60471 11.6436
1 10.9848 0 5.03252
96
 Atoms. Timestep: 2000
2 -0.35843 8.42031 4.7297
2 3.98309 12.679 12.6601
2 -0.257393 4.41223 4.96029
2 7.40311 12.3901 11.2001
2 12.3798 4.34247 8.01739
2 8.66967 12.6693 1.2618
2 0.0254073 8.68742 8.20503
2 4.84802 0.425948 1.05951
2 10.9516 8.81141 6.91468
2 4.56259 10.8563 0.211994
2 2.08015 4.20215 6.12538
2 8.1968 1.39379 13.3488
2 2.33898 7.84996 6.60362
2 7.42231 11.0871 13.4332
2 10.2828 4.79031 6.80879
2 4.66173 4.47642 7.27648
2 11.2635 6.598 4.89016
2 5.82188 10.999 11.5782
2 1.7921 6.3871 4.67355
2 6.10666 1.53055 11.531
2 1.02983 6.09089 8.23467
2 6.74196 2.10595 1.22533
2 10.9742 6.46734 9.07391
2 6.55286 11.6732 1.80649
2 10.1735 9.15037 9.71733
2 4.19336 11.239 2.92199
2 1.18342 3.46858 8.95627
2 8.74292 2.17346 2.46552
2 2.05653 7.98468 9.80422
2 9.24769 10.1194 1.73277
2 9.83161 3.6679 8.77885
2 3.7616 1.8982 2.3907
2 2.37739 3.65724 3.69163
2 8.57825 1.99602 10.8853
2 10.3538 9.02265 4.38353
2 3.28311 10.3061 11.2644
2 10.3844 3.79589 4.4065
2 3.55135 2.76973 11.2791
2 2.45868 9.14795 4.05959
2 8.91545 10.1375 11.0748
2 0.666364 10.9448 -0.059831
2 1.60478 11.9798 6.41422
2 12.0484 1.48574 -0.190633
2 11.1629 11.9698 6.47818
2 12.3758 12.8965 1.97026
2 -0.0349244 12.1321 8.2694
2 0.171061 0.0929918 11.5868
2 -0.333417 -0.153421 4.86386
2 11.4361 2.39953 2.33959
2 11.0772 11.2926 8.95583
2 1.58606 11.1505 2.07935
2 4.73165 2.22547 13.0809
2 0.466541 2.11728 2.65984
2 2.35154 10.0871 8.88982
2 12.013 9.82329 2.487
2 10.597 0.813578 8.72426
2 1.21023 10.47 11.2683
2 1.80717 1.21709 4.19578
2 11.2363 2.11243 10.7072
2 10.2849 11.2265 3.63074
2 11.5323 11.268 11.5323
2 10.6588 0.852743 4.46383
2 0.940702 2.57862 11.768
2 1.73217 11.2792 4.20487
1 11.3922 8.2682 8.48823
1 5.00598 11.8432 1.53986
1 1.01359 4.54523 7.5673
1 8.26561 1.29135 1.3951
1 1.47535 7.85216 8.09967
1 8.13579 11.2241 1.23367
1 10.8811 4.81003 8.44869
1 4.95602 1.99438 1.06558
1 1.59455 4.6937 4.66411
1 7.64833 0.873651 11.7937
1 11.2218 8.19895 5.46648
1 4.29857 11.0761 12.1652
1 11.3131 4.89813 5.16121
1 4.51864 1.07476 11.8101
1 1.60212 7.85844 5.15605
1 7.49512 10.7959 11.6123
1 10.6812 9.95863 3.04455
1 2.26532 9.40143 10.4706
1 2.216 2.11438 2.75504
1 9.86471 1.93281 9.76858
1 2.67224 10.496 2.89388
1 10.2222 10.7734 10.3109
1 10.2999 2.4558 3.2657
1 1.82455 2.74255 10.5369
1 12.2846 1.29339 1.47994
1 11.4234 12.5241 7.98611
1 -0.0327406 11.0545 1.75008
1 1.27656 11.3878 8.02656
1 0.1718 11.4551 11.7557
1 1.17245 -0.283371 4.61303
1 12.4072 1.54988 11.8825
1 11.2618 12.4415 4.85891
96
 Atoms. Timestep: 4000
2 0.893049 8.65437 3.30248
2 5.02253 1.68311 11.1605
2 1.60285 4.07885 3.18145
2 7.6793 0.660404 12.1517
2 12.2166 4.12845 7.30028
2 8.02634 12.5167 1.96426
2 11.2622 8.90388 7.49185
2 4.42568 12.5911 1.07055
2 9.15967 7.36733 6.8163
2 5.89574 10.179 0.129467
2 1.4838 4.10512 6.44879
2 8.19686 2.38792 0.886457
2 0.340727 7.86973 5.86471
2 8.05387 10.8828 0.34312
2 9.50197 4.75782 7.75816
2 1.20865 9.41745 7.59994
2 10.5454 5.60514 5.54418
2 6.345 12.0092 11.4587
2 3.6915 5.22606 4.90052
2 6.88978 2.93596 12.1013
2 0.593556 6.77177 7.94722
2 6.51289 1.41179 1.48031
2 9.53708 6.48856 8.92668
2 6.16789 10.7798 2.019
2 9.01471 9.37348 9.15308
2 3.12333 10.3877 1.31153
2 1.9068 4.90617 8.9936
2 8.34725 2.32094 3.44023
2 3.56132 8.53328 11.3088
2 8.27225 9.67729 2.33138
2 10.6788 3.59865 9.91564
2 4.30118 1.78954 2.50773
2 2.86445 2.86426 4.2704
2 10.2011 2.03246 11.5114
2 9.01117 8.18993 4.07839
2 3.89786 11.7165 10.9191
2 10.4502 3.03431 5.7998
2 3.7056 3.09861 10.4621
2 1.64174 6.17567 4.7818
2 9.05166 10.9688 11.5647
2 11.6164 11.0522 12.7847
2 2.50664 11.1654 6.97864
2 1.7482 1.85464 2.58447
2 11.1654 12.0404 6.66801
2 0.274502 1.02913 0.206489
2 0.703125 11.8473 8.56706
2 0.78489 12.3719 11.3046
2 0.523988 11.3355 5.30665
2 11.5582 2.9911 3.60636
2 10.4795 11.793 9.21278
2 0.14872 10.0963 1.61652
2 4.71571 2.58958 0.0020363
2 -0.0143689 2.01843 1.24737
2 3.19043 10.1665 9.84339
2 10.1736 9.44692 1.50575
2 11.5604 1.21565 8.71315
2 1.75208 9.97449 11.4523
2 2.718 0.567912 5.1454
2 12.4446 1.29058 10.6566
2 10.5189 10.7596 3.95001
2 11.4823 9.98002 10.5414
2 10.5504 0.437054 3.87818
2 1.79923 2.24867 11.3739
2 1.95219 11.3149 3.67678
1 9.59393 8.29744 8.04158
1 4.76304 11.0025 1.34503
1 0.827643 5.13748 7.82264
1 7.89282 1.47681 2.18948
1 0.0532941 8.45974 7.37207
1 7.63056 10.9929 1.76987
1 10.0167 5.05188 9.45255
1 4.982 1.31627 1.16667
1 2.34554 4.51645 4.64508
1 8.50144 2.09663 12.2526
1 9.91175 7.04447 5.36259
1 4.8909 0.135455 10.8284
1 10.6861 4.47722 6.56416
1 5.10014 3.31021 11.6138
1 1.48924 7.75041 4.66882
1 7.87311 11.6943 12.3013
1 9.6111 9.63567 3.10046
1 3.33683 10.2385 11.398
1 3.2846 1.23915 3.49398
1 11.1911 1.96849 10.0981
1 1.6659 10.0354 2.60991
1 9.71426 10.6611 10.1266
1 10.1637 2.0367 4.36368
1 2.11439 3.25402 9.9571
1 0.468776 2.92508 2.60759
1 11.731 12.4066 8.27881
1 11.2776 10.2319 0.789698
1 1.96464 10.6497 8.347
1 0.124353 10.8153 11.5923
1 1.91477 11.9552 5.6109
1 0.825704 0.997604 11.9613
1 11.5064 11.5614 4.79402
96
 Atoms. Timestep: 6000
2 5.08243 5.4059 8.65534
2 4.92634 12.5914 9.74005
2 4.38207 5.43619 4.51252
2 7.85262 0.415104 10.9538
2 11.5165 5.89812 5.45193
2 8.16604 12.1821 0.999328
2 2.58892 8.5044 5.22672
2 4.48801 -0.238634 0.731548
2 8.87901 8.86709 7.68452
2 6.49421 11.0456 1.80804
2 1.63942 5.5121 4.79176
2 8.29545 1.80722 12.8504
2 2.96197 7.07421 7.64953
2 7.69947 10.5023 12.7143
2 10.1859 5.68583 7.18071
2 1.43505 9.71012 7.38755
2 8.47622 11.0891 6.7766
2 6.57124 11.4393 10.0796
2 2.76779 3.68946 7.06858
2 6.03876 2.06317 10.7276
2 0.892681 7.09174 6.79343
2 6.45625 1.85708 1.17894
2 10.2793 6.68402 9.47325
2 4.4432 10.8534 3.32189
2 9.60587 8.68794 10.4286
2 4.21518 10.4543 5.95932
2 1.60009 0.231987 9.20982
2 8.47254 2.04729 2.6341
2 4.18879 10.6662 7.4684
2 8.84304 9.95178 2.39726
2 10.9873 4.21355 9.57283
2 3.053 1.81158 1.72614
2 2.64181 2.81028 4.21461
2 9.05475 3.04111 10.882
2 10.1062 8.81561 4.68927
2 5.2053 8.92007 9.33869
2 9.21279 4.43471 4.3092
2 2.72618 1.35826 11.3601
2 4.12755 5.29829 6.40617
2 8.93369 10.4665 10.0362
2 -0.0503271 9.95183 0.736841
2 2.26108 12.0315 7.0237
2 0.504465 3.31389 2.52457
2 11.052 12.5745 6.25031
2 10.8109 2.07469 0.30994
2 0.292836 11.1599 8.22073
2 12.1699 12.4385 13.0914
2 -0.211707 0.83549 5.11756
2 10.5566 3.93078 2.68157
2 10.7465 11.5531 9.23563
2 2.59074 9.37937 3.02172
2 4.54548 0.972368 12.6336
2 9.98581 1.74531 1.27758
2 2.21191 10.8963 10.5382
2 12.1332 9.14053 2.66219
2 10.6322 10.5704 7.11136
2 1.78643 8.34702 10.7957
2 2.04771 0.853842 3.80146
2 10.6574 2.00348 11.5002
2 10.4674 11.5879 3.53039
2 10.3644 10.5179 12.3704
2 10.7047 1.50272 3.82818
2 12.7538 1.67965 11.1804
2 2.27133 11.0838 4.44942
1 9.01373 7.77146 9.01243
1 5.11289 11.7823 2.15211
1 0.324158 6.22511 5.57447
1 8.09231 1.09891 0.936542
1 2.19857 8.36878 7.02929
1 7.7047 10.5107 1.04256
1 11.3458 5.52178 8.57194
1 4.47307 1.58616 0.826457
1 2.89042 4.39337 5.30139
1 7.57678 2.01717 11.3446
1 8.92109 9.65722 6.15364
1 5.09632 10.7743 9.15268
1 9.87854 5.30246 5.57999
1 4.38506 1.13338 11.039
1 4.41862 6.15865 7.57602
1 7.95466 11.5301 11.5473
1 10.5244 9.58091 3.33375
1 1.9396 9.83498 11.5091
1 1.64985 2.35996 2.98124
1 10.5718 2.58924 9.88266
1 3.65311 10.0241 4.30802
1 10.4567 10.5315 10.5074
1 9.72848 2.79572 3.40081
1 1.2784 1.39489 10.2799
1 11.8995 3.97623 1.87101
1 11.7469 11.9468 7.81224
1 0.924622 9.29687 2.39459
1 1.96703 11.2696 8.59815
1 11.4298 10.7622 0.131563
1 1.65416 -0.204841 5.33199
1 12.0418 1.35239 12.8934
1 11.1894 0.102871 4.72479
96
 Atoms. Timestep: 8000
2 7.88597 7.08261 8.18873
2 6.90525 6.98305 10.6648
2 3.90726 6.08316 3.60224
2 5.7684 11.9162 10.5891
2 1.98839 4.32549 5.21222
2 8.60517 2.23434 1.14294
2 4.20683 8.93634 6.5573
2 2.7618 11.8279 12.217
2 11.0566 7.99409 5.74716
2 6.28306 11.6598 2.29883
2 4.54858 5.02343 5.6948
2 7.21483 1.67035 8.79006
2 5.67401 6.81971 6.95208
2 7.48529 12.0602 12.5543
2 11.576 3.73308 2.11047
2 2.63768 8.6153 8.23863
2 10.8823 9.6915 4.51655
2 5.439 9.58664 11.5886
2 6.81474 4.47699 3.27301
2 4.03093 3.70552 8.91137
2 2.66362 6.52735 7.11608
2 4.31295 12.0177 1.27842
2 9.25129 5.5075 9.34565
2 4.28584 11.1943 4.06353
2 9.77377 7.80736 10.4856
2 3.42753 4.76031 8.29756
2 1.88598 11.076 8.84732
2 8.74032 4.32907 1.22195
2 4.56482 8.45789 9.65858
2 8.1873 11.646 3.04894
2 9.11296 3.10011 8.40537
2 3.45846 2.3672 1.32046
2 4.29377 4.20942 3.03706
2 6.62548 11.4067 8.23251
2 9.49278 11.0835 5.17237
2 5.40275 7.57129 12.433
2 9.97807 2.08311 3.86555
2 2.55573 1.30246 8.91492
2 6.55681 5.93993 5.12463
2 7.96552 9.61536 11.5657
2 12.0145 11.0179 2.30822
2 1.20428 1.05466 7.46523
2 2.12642 2.90478 3.78254
2 8.8883 12.02 7.82537
2 1.03652 0.837923 11.49
2 11.7618 11.6715 8.73709
2 9.76401 11.9769 1.58861
2 0.925862 0.81126 4.43119
2 8.10088 5.03813 6.94914
2 9.38577 9.9244 9.80856
2 1.59469 10.48 4.73659
2 4.12691 1.91857 11.1093
2 10.9071 2.86323 1.23491
2 1.02366 9.90945 10.3769
2 10.5263 11.9479 3.54246
2 10.2616 9.86572 7.60934
2 0.656482 10.1619 12.6744
2 4.87166 1.63343 3.28489
2 9.91433 1.24259 10.4638
2 7.77498 0.434517 5.35444
2 10.4396 10.0449 12.0647
2 9.83402 4.80809 3.31165
2 0.73369 2.03876 9.79183
2 3.04327 11.5925 5.85155
1 8.50948 6.80374 9.93341
1 4.85364 11.8651 2.85979
1 2.86822 4.78655 6.68258
1 9.66622 3.28026 12.5407
1 3.94956 7.61516 7.73835
1 8.2263 12.1568 1.43123
1 9.49352 4.57745 7.63338
1 3.68771 1.1969 12.5193
1 5.27597 5.25588 4.17342
1 5.8462 0.692162 9.19673
1 10.1073 9.39109 6.04493
1 5.50912 8.01282 10.9458
1 10.8667 3.65159 3.96189
1 3.78268 2.21677 9.56859
1 7.33077 6.38111 6.68641
1 6.68167 10.7661 11.62
1 8.87498 0.522097 4.28565
1 1.29712 11.0202 11.5407
1 3.80845 2.69681 2.99852
1 8.77408 1.61239 9.10957
1 3.45752 10.0937 5.17548
1 9.53973 9.16865 11.0979
1 8.25504 5.03556 2.62497
1 1.23943 0.849973 9.10421
1 0.990514 3.17992 4.79885
1 10.2517 10.948 8.77588
1 12.0133 10.9482 3.90261
1 1.41192 9.59141 8.78223
1 11.1225 10.6329 1.01873
1 1.93937 0.898384 5.81957
1 11.2827 1.90158 11.2223
1 7.73061 11.2159 6.90986
96
 Atoms. Timestep: 10000
2 10.2341 8.44075 9.44773
2 7.34023 7.79646 11.0073
2 4.71499 8.15579 2.75986
2 7.17524 0.856794 10.6225
2 2.39316 4.83727 5.753
2 7.58618 2.70311 2.81847
2 4.66199 8.7864 5.92685
2 0.433099 2.13763 10.5038
2 8.86205 7.49768 4.96473
2 5.41318 1.08246 2.80642
2 4.37693 5.89872 3.87435
2 9.06637 1.01324 8.07095
2 4.56407 4.07789 8.44689
2 7.10394 0.916613 0.964517
2 11.2985 5.31055 4.87661
2 4.23084 7.62736 8.52502
2 11.5793 9.0075 3.87419
2 6.48796 10.6756 11.5537
2 6.82642 6.96016 3.26231
2 6.50364 2.12053 7.85485
2 4.128 6.62901 6.36903
2 1.83396 11.6303 1.34885
2 8.67467 5.93801 9.98779
2 4.38435 11.352 3.66244
2 9.75397 8.92399 11.4345
2 5.41046 4.14118 5.94989
2 3.19649 10.4769 8.16858
2 8.11048 5.23614 3.54853
2 7.66521 8.93902 9.24855
2 6.15573 9.78103 4.04796
2 9.65418 3.23287 8.80805
2 1.66046 3.60198 0.378758
2 4.35103 4.82789 1.66756
2 6.87785 11.1146 9.17321
2 8.54242 9.44346 4.45062
2 4.6049 8.76887 10.7955
2 9.76453 3.49804 6.60638
2 3.29791 2.03167 8.23393
2 6.55652 6.61735 6.32676
2 8.67291 10.8158 12.2608
2 1.34054 9.07945 2.0685
2 1.19431 11.7205 7.34267
2 1.62861 4.50878 2.90458
2 8.90086 10.0171 7.64814
2 1.51727 11.8084 9.94499
2 10.8469 11.3392 8.79626
2 1.3284 6.62457 3.82547
2 1.64434 8.86021 5.27721
2 6.9109 4.82189 8.11487
2 10.3023 11.7886 10.8626
2 2.81293 9.15321 3.58877
2 2.95026 3.42505 10.6863
2 6.68391 5.34543 2.10917
2 2.63007 9.16063 10.0297
2 6.90598 12.0716 4.0559
2 10.5199 9.72827 6.49803
2 0.771024 11.0164 11.6415
2 3.37777 2.31892 2.22218
2 11.6889 1.81078 8.37385
2 6.99839 10.0658 6.42436
2 10.8236 10.1243 0.894835
2 8.52356 5.34135 5.56571
2 5.92175 8.60389 7.98174
2 3.56908 10.7113 5.29357
1 8.72562 7.78015 10.2011
1 3.40725 0.677737 2.4082
1 3.83967 5.1916 5.44705
1 7.75098 4.31835 2.2364
1 5.21537 7.29963 7.23506
1 7.15013 1.23064 2.5784
1 8.27028 4.5007 8.65853
1 1.60748 3.07192 11.3466
1 5.09716 6.09191 2.41059
1 7.4945 0.698937 8.80817
1 10.3318 8.79197 5.3138
1 6.27098 8.77971 11.5323
1 10.133 5.19236 6.22383
1 3.43608 3.49745 9.20161
1 5.8084 3.79271 7.53804
1 7.31322 11.8016 12.0994
1 7.25504 10.418 4.82459
1 1.27398 10.2112 10.3816
1 2.8684 3.83188 1.58284
1 10.2542 2.04976 7.62429
1 4.55248 9.57242 4.07404
1 9.98455 10.4682 11.7053
1 7.5552 6.5173 4.95067
1 2.60082 0.571051 8.47255
1 1.13453 4.9518 4.44842
1 10.4687 9.87242 8.11325
1 1.38268 8.4657 3.82663
1 4.03959 8.95298 9.18227
1 0.570878 10.397 0.835162
1 2.23597 10.5238 6.3958
1 11.6833 0.810773 9.90656
1 7.28927 9.76127 8.01443
96
 Atoms. Timestep: 12000
2 9.74071 9.55539 8.88385
2 7.48475 8.04204 9.99313
2 4.37058 6.6408 3.22024
2 7.30393 11.7627 11.1567
2 3.19701 4.79945 5.18188
2 6.734 2.94749 11.0014
2 4.70123 9.26696 5.64192
2 11.9751 6.20042 10.7443
2 9.02193 8.14146 5.35551
2 7.76924 2.43801 2.43287
2 5.2517 4.38381 4.8173
2 9.84601 2.24584 10.1896
2 4.36111 3.19243 9.74348
2 5.71769 0.885641 0.580569
2 11.1696 5.26088 5.60258
2 4.53089 7.59539 8.46201
2 11.4634 8.50919 4.8001
2 9.51132 11.8949 9.28089
2 6.27621 6.09632 3.38601
2 7.47075 0.874806 8.60382
2 4.18595 6.32468 6.55501
2 2.0647 11.3258 1.86076
2 8.9905 6.51385 9.98495
2 2.8383 2.08304 11.9025
2 9.23505 9.63443 11.0058
2 4.8575 3.97167 7.44392
2 4.70678 0.512813 9.82901
2 6.66331 6.00489 11.371
2 4.52191 5.62803 9.63259
2 7.0978 8.07752 4.11141
2 11.7813 4.29682 10.0776
2 1.04454 4.22743 0.549323
2 3.70579 4.33569 2.54434
2 5.26584 11.1868 7.93965
2 8.88516 10.1383 4.20654
2 6.33122 9.808 11.4492
2 10.9898 3.34297 7.98034
2 2.64882 11.9546 10.5347
2 6.37421 7.02252 6.5391
2 9.41909 0.703253 11.2658
2 0.838884 9.90888 3.45234
2 3.28097 11.746 6.38259
2 1.11318 4.78624 3.2658
2 8.30811 11.2729 6.72734
2 1.15336 9.31285 9.76123
2 11.694 10.8705 7.80422
2 1.3502 6.91165 4.76677
2 2.18203 9.99719 4.92332
2 6.58016 5.15409 9.14036
2 11.5483 10.4135 11.3574
2 2.6888 8.0965 3.19385
2 2.53939 3.77549 10.6585
2 5.83898 4.21358 1.83048
2 2.43535 7.34686 10.3609
2 6.9317 11.0413 2.4487
2 9.8521 9.97301 6.34329
2 10.5868 7.74286 9.79819
2 2.33662 2.36748 2.54747
2 11.7443 0.762937 9.62882
2 6.81024 10.812 4.99143
2 10.8371 10.8992 1.44455
2 9.11832 5.04081 7.98715
2 6.44003 9.41929 7.39781
2 5.6127 9.45645 3.02876
1 9.07598 8.52511 9.87923
1 2.73694 1.20158 1.49856
1 4.41523 4.79307 6.14245
1 6.45178 4.60736 12.0161
1 5.07134 8.14999 6.87281
1 6.42677 1.39396 1.95254
1 8.16025 5.22531 9.43859
1 1.43003 4.76454 10.935
1 4.90694 5.109 3.21012
1 8.21375 1.60388 10.4671
1 9.94379 9.28507 4.74215
1 6.25718 7.92029 10.9296
1 10.1109 4.50661 6.73365
1 2.93498 2.1598 10.1158
1 5.05902 4.534 8.89758
1 5.6738 11.6631 11.2308
1 7.19898 9.74962 3.68638
1 0.988485 7.85232 10.0413
1 2.06401 3.81758 2.15209
1 11.398 2.74339 9.61529
1 4.23351 8.14255 2.91546
1 10.2065 10.8363 11.9571
1 7.55378 7.09085 5.43912
1 3.87419 0.596778 8.31861
1 1.25416 4.97488 4.87523
1 9.81893 11.1794 7.68471
1 1.5664 8.73462 4.28423
1 4.18602 7.48419 10.0574
1 0.701208 10.7135 2.09022
1 3.65108 10.4416 5.3075
1 1.34566 10.9152 10.3918
1 6.84694 11 7.65515
96
 Atoms. Timestep: 14000
2 10.0326 9.75321 7.91433
2 9.15023 5.87974 3.00249
2 4.3966 5.73624 3.00816
2 5.93288 2.35661 11.6042
2 3.12241 5.82783 6.16438
2 7.53441 2.39544 1.4595
2 2.54559 8.70692 7.50228
2 3.00154 5.82568 11.2358
2 7.78969 7.97333 6.04412
2 2.83412 10.6749 0.726925
2 5.19606 5.6266 5.00628
2 7.67624 4.63439 11.9333
2 7.471 3.77056 9.72831
2 4.39639 11.6468 11.4282
2 11.5018 5.93094 6.61576
2 4.37723 8.24771 9.50418
2 10.8029 7.34714 3.19645
2 9.42261 2.39899 10.9725
2 9.60661 6.45698 5.79344
2 6.61571 11.4457 9.98514
2 5.2519 7.55041 7.32661
2 0.887583 11.8789 1.15838
2 9.40153 7.72467 7.30737
2 3.31956 2.35743 10.2981
2 9.07719 9.31869 10.2382
2 5.16572 4.77718 7.50321
2 4.48428 0.956517 8.53513
2 10.2206 5.64217 4.774
2 5.78537 5.61708 10.0581
2 6.49511 9.90969 4.43948
2 0.944128 5.39051 8.92628
2 1.67709 3.13232 10.9786
2 3.89668 3.3654 4.11854
2 4.62122 10.7093 5.87162
2 7.70752 8.23202 2.59009
2 4.7309 6.92543 12.0582
2 10.2537 4.25575 8.73332
2 2.10259 1.73005 8.11081
2 6.34024 9.35101 6.95604
2 10.7158 9.99361 11.6423
2 0.855028 9.89147 2.12543
2 2.6578 11.3216 6.04351
2 1.72636 5.01327 3.98051
2 8.54186 11.5121 8.60547
2 2.72813 10.2827 9.06616
2 11.2577 11.1773 6.49231
2 1.29493 7.27603 4.80269
2 1.00105 9.26593 4.61646
2 7.33957 5.23953 7.62361
2 1.3739 11.5626 10.9523
2 2.21719 7.31452 2.64772
2 2.98292 4.17735 9.22568
2 6.41808 3.82319 3.22115
2 2.56333 7.5357 10.0953
2 5.84559 10.1803 1.66491
2 8.00377 10.7801 6.60975
2 11.4969 8.13322 9.35577
2 2.24872 2.95353 2.08762
2 11.1426 1.28612 8.90882
2 4.46017 10.3425 7.80901
2 1.99768 9.48693 10.9955
2 9.18484 5.8417 8.03182
2 6.20424 9.3594 9.25313
2 4.64233 8.47839 2.70287
1 10.0048 8.45275 8.91053
1 1.63405 2.34696 0.805913
1 4.73951 6.28177 6.55723
1 8.09914 3.46565 2.67009
1 5.16303 9.01727 7.92685
1 4.34982 10.3912 0.704184
1 8.18482 6.43889 7.04098
1 1.7701 4.86066 10.314
1 5.16306 4.42651 4.03345
1 7.58073 3.05236 11.393
1 9.40131 7.23508 2.25736
1 9.8234 4.46495 3.30368
1 10.7414 5.58794 8.09712
1 3.05509 3.26069 7.82664
1 6.3248 4.65168 8.72027
1 4.96552 1.19318 10.399
1 6.37214 9.06102 2.80029
1 2.00892 8.79971 9.06981
1 2.31151 3.50064 3.61706
1 10.1895 2.61108 9.58097
1 3.64849 7.00249 1.74443
1 9.87061 8.65329 12.0933
1 7.29162 9.55515 5.75907
1 3.79364 11.6479 7.09231
1 1.56378 5.78369 5.52963
1 9.78632 11.1187 7.19251
1 0.985267 8.38302 3.12469
1 4.5013 6.75405 10.4606
1 1.26275 10.2571 12.1193
1 1.17088 10.2756 5.86407
1 1.57954 11.8159 9.154
1 7.74656 10.2353 9.47202
96
 Atoms. Timestep: 16000
2 11.5905 8.45155 8.24762
2 11.3129 6.94093 1.46386
2 6.13098 7.18881 2.12511
2 5.24888 1.69467 10.8329
2 3.70061 6.01711 6.86371
2 4.00359 3.60334 11.0953
2 11.5786 5.34372 11.6495
2 1.99935 5.26897 11.311
2 8.52454 7.39805 5.6303
2 2.35602 9.81062 12.478
2 5.70961 6.17224 4.81941
2 9.07574 5.55796 12.4459
2 5.06749 4.61862 9.31611
2 4.29556 10.8733 11.5434
2 0.995219 7.16975 6.18717
2 5.03428 7.81609 9.01214
2 0.926846 8.24116 3.43717
2 6.40005 4.23358 11.643
2 7.36206 5.72133 7.11953
2 5.85165 11.6807 9.80647
2 6.01761 7.57191 7.08845
2 1.37088 12.2532 1.69429
2 10.3033 6.3279 7.09467
2 2.99172 3.09772 7.37869
2 12.3913 6.3852 8.95558
2 5.35217 4.69336 7.10347
2 2.8674 1.13753 9.49601
2 9.72443 4.93609 1.93004
2 3.7341 6.23872 9.04724
2 8.95533 10.2904 4.4007
2 9.12481 3.80526 7.97469
2 2.42372 2.7345 0.561488
2 4.50685 4.97211 2.60772
2 2.17829 10.5243 7.94953
2 9.88875 9.05613 2.70398
2 3.72968 8.65984 10.5014
2 6.63937 1.86226 8.58969
2 12.4191 1.38766 8.24354
2 7.84489 8.68703 7.12948
2 11.5786 9.72013 1.83621
2 2.08969 10.599 3.04517
2 2.16679 0.892956 7.0516
2 2.29324 5.40865 4.34139
2 7.95064 0.858829 7.41076
2 11.9715 10.8103 8.96624
2 11.4553 11.8063 6.75858
2 2.8252 7.41543 4.25107
2 1.60194 9.54547 5.36671
2 3.90714 1.78325 2.52021
2 11.1413 0.988566 11.0972
2 4.07351 9.24763 3.15536
2 1.81935 2.96145 10.1283
2 7.31965 4.90685 3.08112
2 2.13736 8.33002 8.57884
2 5.18004 9.2429 0.763947
2 9.51607 10.3154 7.11709
2 8.16977 3.71406 10.4168
2 2.38297 3.12961 3.14724
2 9.6451 2.0264 9.16098
2 4.75256 9.6441 8.04211
2 1.13231 7.71713 10.6469
2 8.83099 4.74488 4.72627
2 7.08094 10.2743 8.65278
2 6.7678 10.0314 3.01344
1 11.7759 6.93206 7.31208
1 2.42956 2.00849 1.91401
1 6.07031 5.96101 6.43217
1 8.69183 4.26718 3.32724
1 6.25682 8.83086 8.1017
1 3.89403 8.95228 12.0399
1 9.02944 5.90947 6.28822
1 2.30434 3.79902 11.569
1 6.08107 5.73573 3.13219
1 5.71427 3.33654 10.3989
1 11.2107 8.23756 2.47963
1 10.7692 5.51614 0.594457
1 7.852 4.92861 11.3969
1 2.08604 1.94489 8.38227
1 4.01188 4.62224 7.79871
1 4.26487 0.236814 10.3936
1 8.5317 10.163 2.87469
1 0.542344 9.23519 9.51992
1 3.144 4.68705 3.19623
1 8.21379 2.73604 9.00567
1 5.62961 9.19983 2.23457
1 0.624065 6.09753 10.6855
1 9.0201 9.42052 5.94009
1 3.79595 10.7719 8.71921
1 2.36373 6.50674 5.7013
1 9.53321 11.8739 7.25349
1 2.44382 9.28518 3.96468
1 3.45173 7.70095 9.33235
1 1.53612 10.6242 1.38411
1 1.16967 11.0512 6.5898
1 10.9525 12.4941 9.12658
1 6.58974 11.9596 8.49528
96
 Atoms. Timestep: 18000
2 12.1548 7.96648 9.77309
2 8.11011 1.09138 0.408907
2 4.53371 6.08261 2.30386
2 4.32418 1.57191 10.6008
2 3.75559 4.872 8.10081
2 4.07473 3.77217 11.8419
2 10.4966 6.55111 0.21636
2 1.2889 4.70264 11.981
2 11.072 9.68903 3.05392
2 5.49164 10.9928 0.587379
2 5.29915 6.05574 4.74684
2 8.57464 3.81395 13.1812
2 5.92273 4.04173 10.0664
2 4.20671 10.9476 11.1226
2 0.71507 6.11462 7.91557
2 5.99955 8.32908 8.09142
2 10.4783 0.0889905 2.02851
2 6.42649 2.15431 12.7195
2 8.64772 4.38952 8.13346
2 5.76808 12.2172 9.01665
2 6.41534 7.90578 5.8701
2 3.61064 1.10908 1.72014
2 9.8204 6.45109 8.13459
2 3.22039 0.851612 6.42273
2 11.4608 6.05733 10.8104
2 5.58629 6.16235 7.64417
2 3.36237 11.9945 8.79899
2 8.92778 5.74611 2.11191
2 4.92876 6.77701 9.85992
2 8.17073 8.81562 2.96264
2 9.01291 3.85393 9.71813
2 2.86079 2.16188 0.27861
2 3.45902 5.04286 4.02445
2 1.2584 9.60999 6.7256
2 8.68208 10.7643 0.830036
2 5.53891 9.20315 11.0186
2 8.57663 1.21147 8.80919
2 1.62606 2.23398 11.0982
2 2.42139 8.24507 11.5061
2 8.62379 0.407902 3.10122
2 11.6918 10.4371 0.237747
2 0.736077 11.6153 7.39242
2 2.43177 4.04535 5.89642
2 8.13823 12.5515 6.83496
2 0.906425 10.9686 10.6663
2 10.6916 10.6719 6.51548
2 2.88267 6.87045 6.75148
2 12.4815 11.3863 3.70985
2 2.92678 2.42701 3.48984
2 5.60344 1.09811 2.61921
2 0.739915 0.447693 1.59471
2 1.48666 2.08221 8.40657
2 6.70198 4.85782 3.27582
2 2.30032 8.55054 8.82505
2 4.17921 8.44635 12.6659
2 9.26763 10.387 5.12372
2 8.56957 2.47029 11.0335
2 1.31727 3.35724 2.6513
2 11.227 1.14772 10.1604
2 4.53316 8.80777 6.62483
2 1.09845 7.62397 12.898
2 8.71353 5.83485 5.13585
2 6.16564 11.2116 7.21957
2 6.45369 8.2914 1.53361
1 11.4879 6.38087 9.16304
1 2.14165 1.40477 2.0499
1 5.85748 6.47599 6.05401
1 8.20881 5.65741 3.42163
1 6.06596 9.33623 6.64085
1 4.66013 10.0461 12.397
1 8.76776 5.29848 6.73875
1 2.52828 3.33572 11.8432
1 4.909 4.8515 3.35945
1 5.45136 3.28602 11.5024
1 8.7688 12.1614 1.54924
1 9.27935 5.52348 0.310527
1 8.03101 2.48633 12.4857
1 2.16767 0.641378 7.82186
1 4.90259 5.34277 9.07952
1 4.3972 12.0965 10.0496
1 7.89963 9.29504 1.19372
1 1.31979 9.15018 10.2722
1 2.19313 3.8403 4.14345
1 9.70534 1.92409 9.98648
1 5.02994 7.40556 1.20676
1 12.3231 6.2739 12.3656
1 9.34128 9.20485 3.95512
1 2.9681 8.51381 7.14069
1 2.34001 5.21614 7.16365
1 9.1432 11.6007 6.09629
1 11.7528 10.8879 2.00836
1 5.48913 8.32265 9.65685
1 5.55786 0.582964 1.11151
1 0.20295 11.0214 5.62932
1 0.914286 0.865199 10.5792
1 7.26222 12.2633 8.60367
96
 Atoms. Timestep: 20000
2 10.9379 8.24741 8.40772
2 8.27362 1.60423 2.42702
2 5.95658 6.62376 1.43069
2 3.48531 1.67798 10.6269
2 2.2762 3.44335 9.17573
2 1.82822 3.7142 11.7678
2 10.0174 5.2667 10.7937
2 11.0589 3.49659 12.0564
2 10.4699 10.0586 2.68858
2 4.63027 11.6764 12.0166
2 5.89547 5.39245 6.05542
2 8.87525 3.39162 12.1284
2 3.87557 5.45316 10.2028
2 4.07832 10.5703 9.91167
2 0.24147 5.21516 7.96524
2 6.88449 10.8095 7.79322
2 10.3515 0.636694 2.66965
2 6.9211 2.08407 0.839545
2 7.55644 7.43998 6.18993
2 5.34186 0.843842 9.27006
2 6.00373 8.60668 6.78636
2 4.03651 1.0745 1.62436
2 10.4061 7.12041 6.26729
2 3.78721 0.73508 4.54493
2 9.70093 6.48685 8.67109
2 5.44596 6.14541 8.08863
2 3.36172 1.1415 7.65478
2 9.55908 2.96527 3.64804
2 6.19357 7.10698 10.6491
2 8.35507 9.28986 3.56822
2 10.9064 11.7709 9.53696
2 1.90272 2.9188 1.72978
2 4.7995 4.97199 3.95334
2 1.70835 9.0063 5.85183
2 7.41463 12.0641 3.96921
2 6.07536 9.69344 11.165
2 8.4862 12.1187 9.07028
2 0.630368 1.35816 12.4774
2 8.34576 9.05489 9.35043
2 9.31982 12.0789 5.14792
2 11.8489 11.1196 1.10617
2 2.67032 11.0615 5.97719
2 3.58652 4.54578 6.93589
2 9.38574 10.3353 7.27398
2 2.3525 12.0239 11.5311
2 11.4085 10.7456 6.5116
2 4.00065 7.55339 6.87351
2 0.717798 10.4801 3.76066
2 5.69015 3.37502 2.68375
2 4.52823 2.55157 2.86427
2 1.25084 1.00697 3.09421
2 4.02958 2.59997 6.38898
2 7.44571 4.79196 2.3198
2 0.819316 7.48475 7.19644
2 4.88164 9.18964 0.68043
2 10.0673 9.32489 4.95558
2 9.26096 1.60139 11.3683
2 3.28815 3.41668 4.21101
2 10.3652 11.0025 11.7989
2 3.85783 9.40349 8.07886
2 4.44617 3.41011 9.363
2 8.97163 5.55739 4.94992
2 4.90828 11.4885 7.34059
2 5.95175 9.53202 2.75871
1 11.189 6.6998 7.8122
1 2.78824 1.70569 3.10764
1 5.91448 6.98082 6.60635
1 9.15751 4.61012 3.53528
1 5.26567 9.93094 7.3945
1 4.64633 10.0908 11.4208
1 9.00876 7.21015 5.27623
1 0.595395 2.96241 0.803019
1 5.86365 4.93252 2.25703
1 3.14252 3.71743 10.5794
1 9.32526 1.30414 3.76538
1 9.99204 4.58291 12.2774
1 8.60964 2.02196 0.684831
1 3.88968 0.883872 6.09121
1 5.64146 6.02295 9.71024
1 3.60659 0.48436 9.28167
1 7.12538 10.4842 3.55832
1 9.5899 9.20897 8.38664
1 4.22477 4.05005 5.42814
1 9.58709 11.7064 10.3872
1 5.99937 8.26098 1.55784
1 8.78502 6.4437 9.90862
1 9.99735 8.62595 3.44283
1 2.65134 8.31344 7.18247
1 1.71667 3.99676 7.84076
1 9.85359 10.5647 5.87096
1 11.7144 11.5071 2.57593
1 7.3993 8.33357 10.6584
1 5.34941 1.69608 12.5574
1 1.32528 10.4671 5.35214
1 0.619652 11.5406 11.963
1 6.89571 0.707806 8.36087
96
 Atoms. Timestep: 22000
2 11.109 10.42 7.57307
2 7.81436 1.73703 2.54552
2 6.89118 8.24915 1.49911
2 1.44666 2.89546 11.3761
2 1.2557 3.42651 8.66543
2 11.858 8.14879 12.2785
2 10.3949 5.93147 11.9357
2 11.3278 4.25892 0.851007
2 0.480355 9.59903 2.45109
2 5.14427 11.5801 12.4394
2 3.82799 5.75152 6.40852
2 8.42211 3.82766 0.37177
2 2.82869 4.09079 10.2516
2 4.00435 10.6945 10.7758
2 11.7145 5.32344 7.54369
2 4.17157 8.75738 7.59148
2 10.5742 0.932073 3.6698
2 6.03452 2.2473 0.696479
2 6.48761 6.7078 6.35598
2 9.09629 12.0545 7.86663
2 6.07574 7.89157 7.97392
2 3.06668 1.86014 1.55212
2 9.00302 6.00902 7.64746
2 1.16556 5.79613 4.70938
2 11.2432 7.52636 9.41
2 4.37156 5.94263 8.66099
2 3.78098 10.5918 8.7934
2 8.83752 2.31103 4.44065
2 5.25471 6.17561 10.9653
2 9.55548 8.9861 1.44072
2 9.66639 11.5587 10.3338
2 1.33309 4.08479 1.50075
2 3.6393 5.14892 3.99215
2 2.99042 10.4543 0.893286
2 9.371 10.9971 2.9852
2 4.60213 8.53604 12.5167
2 9.52236 11.8723 0.524059
2 0.613165 2.03139 0.607204
2 5.39602 9.26871 9.8858
2 9.91016 0.497767 5.51816
2 11.6404 12.2169 1.0685
2 7.93992 11.5164 5.12076
2 1.96505 4.80594 6.75512
2 1.09141 8.67578 5.54956
2 1.45749 11.4626 11.0036
2 2.46678 9.38687 3.85258
2 4.22391 8.06141 5.77066
2 1.08219 11.5877 2.84856
2 6.36356 3.60576 2.33605
2 3.7365 3.18695 3.14322
2 0.603479 2.45039 2.68327
2 6.91663 1.21994 6.21938
2 6.49083 4.18785 4.55336
2 11.5332 7.00837 6.28016
2 4.91001 10.3625 1.51318
2 11.8742 6.98046 2.98392
2 7.80553 1.49386 12.3792
2 1.93238 3.66838 4.32744
2 11.0151 1.71797 11.5719
2 4.4189 10.7308 4.98276
2 2.41988 0.968837 9.53751
2 7.19988 4.12026 6.68764
2 6.33051 10.6067 7.39756
2 7.16183 10.6186 1.45709
1 10.5532 6.26472 7.99127
1 2.28518 2.92912 2.61642
1 4.83069 6.93982 7.20504
1 7.31196 2.78188 5.57992
1 5.16701 10.1072 8.49796
1 4.27851 10.2817 12.399
1 7.63848 5.7103 6.36314
1 0.675289 3.56202 12.613
1 5.0238 4.4948 3.33951
1 2.05852 2.5908 10.0453
1 8.8157 0.544261 3.79723
1 10.0089 4.57806 0.514359
1 7.32545 2.71886 1.46032
1 7.61545 11.7119 6.58006
1 4.58078 5.02493 10.116
1 2.73608 11.1879 9.67799
1 8.96019 10.6019 1.5546
1 12.0289 9.77465 5.98909
1 2.67858 5.20588 5.36623
1 9.22071 0.880613 11.9504
1 6.12359 9.4428 2.41617
1 11.2395 7.11502 11.2117
1 11.5287 8.38147 1.50621
1 3.60502 9.3456 4.88937
1 0.654346 4.05509 7.25057
1 0.457256 7.06997 4.78375
1 11.7686 0.783147 2.75097
1 5.46772 7.92887 11.1428
1 4.56836 1.24936 0.739955
1 2.19034 10.502 2.39452
1 0.420594 0.816786 12.2022
1 10.0262 11.132 8.67736
96
 Atoms. Timestep: 24000
2 8.67949 10.6833 7.58455
2 9.24093 1.24354 1.50638