LAMMPS (2 Aug 2023 - Update 3)
units metal
boundary p p p
atom_style full
pair_style tersoff
neighbor 2.0 bin
neigh_modify delay 1




read_data SiO.data
Reading data file ...
  orthogonal box = (0 0 0) to (12.589463 12.589463 13.222096)
  1 by 1 by 1 MPI processor grid
WARNING: Atom style in data file atom-ID molecule-ID atom-type q x y z differs from currently defined atom style full (../read_data.cpp:621)
  reading atoms ...
  96 atoms
Finding 1-2 1-3 1-4 neighbors ...
  special bond factors lj:    0        0        0       
  special bond factors coul:  0        0        0       
     0 = max # of 1-2 neighbors
     0 = max # of 1-3 neighbors
     0 = max # of 1-4 neighbors
     1 = max # of special neighbors
  special bonds CPU = 0.000 seconds
  read_data CPU = 0.003 seconds
replicate 1 1 1
Replication is creating a 1x1x1 = 1 times larger system...
  orthogonal box = (0 0 0) to (12.589463 12.589463 13.222096)
  1 by 1 by 1 MPI processor grid
  96 atoms
Finding 1-2 1-3 1-4 neighbors ...
  special bond factors lj:    0        0        0       
  special bond factors coul:  0        0        0       
     0 = max # of 1-2 neighbors
     0 = max # of 1-3 neighbors
     0 = max # of 1-4 neighbors
     1 = max # of special neighbors
  special bonds CPU = 0.000 seconds
  replicate CPU = 0.001 seconds

pair_coeff * *  /root/Desktop/host/job1/SiO.tersoff Si O
Reading tersoff potential file /root/Desktop/host/job1/SiO.tersoff with DATE: 2010-08-16



group Si type 1
32 atoms in group Si
group O type 2
64 atoms in group O
#create_bonds many SiO SiO 1 0.5 10

dump dmp all xyz 2000 dump.lammpstrj



variable apot equal pe
# first number: number of steps to get current temp
# second number: calculate average n number of temp read above.
# third number: temp record (this must be larger than the one above )

variable atemp equal temp
fix temp_info all ave/time 10 200 2000 v_atemp file temperature.dat

#The cutoff used for pairwise computation (any pair style) and the
#associated neighbor list is the maximum cutoff that any compute
#can use. Atoms don't know any info about their neighbors
#further away than that.

# compute coord number
compute coor12 Si coord/atom cutoff 2.5 group O
compute coor11 Si coord/atom cutoff 2.5 group Si
compute coor22 O coord/atom cutoff 2.0 group O

compute sumcoor12 all reduce ave c_coor12
compute sumcoor11 all reduce ave c_coor11
compute sumcoor22 all reduce ave c_coor22


fix 12coord all ave/time  10 200 2000 c_sumcoor12 file Si-O_coord_number.dat
fix 11coord all ave/time  10 200 2000  c_sumcoor11 file Si-Si_coord_number.dat
fix 22coord all ave/time  10 200 2000  c_sumcoor22 file O-O_coord_number.dat




# unit cell information
variable avol equal vol
variable alx equal lx
variable aly equal ly
variable alz equal lz
fix cell_info all ave/time 10 200 2000 v_avol v_alx v_aly v_alz file cell_volume.dat


fix potential_info all ave/time 10 200 2000 v_apot file potential-energy.dat
thermo 1000



velocity all create 6000 62588 mom yes rot no dist gaussian
fix npt1 all npt temp 6000 5000 0.1 iso 0 0  1
timestep 0.001
#run 500
run 80000
Neighbor list info ...
  update: every = 1 steps, delay = 1 steps, check = yes
  max neighbors/atom: 2000, page size: 100000
  master list distance cutoff = 4.8
  ghost atom cutoff = 4.8
  binsize = 2.4, bins = 6 6 6
  4 neighbor lists, perpetual/occasional/extra = 1 3 0
  (1) pair tersoff, perpetual
      attributes: full, newton on
      pair build: full/bin
      stencil: full/bin/3d
      bin: standard
  (2) compute coord/atom, occasional, copy from (1)
      attributes: full, newton on
      pair build: copy
      stencil: none
      bin: none
  (3) compute coord/atom, occasional, copy from (1)
      attributes: full, newton on
      pair build: copy
      stencil: none
      bin: none
  (4) compute coord/atom, occasional, copy from (1)
      attributes: full, newton on
      pair build: copy
      stencil: none
      bin: none
Per MPI rank memory allocation (min/avg/max) = 6.021 | 6.021 | 6.021 Mbytes
   Step          Temp          E_pair         E_mol          TotEng         Press          Volume    
         0   6000          -638.06385      0             -564.38556      73800.118      2095.6304    
      1000   5329.4573     -550.05614      0             -484.61193      3297.4994      2287.0809    
      2000   5740.5995     -567.94041      0             -497.44749     -3505.8337      2315.7654    
      3000   5399.0724     -549.76804      0             -483.46898     -7899.9503      2265.3872    
      4000   6388.2383     -550.70229      0             -472.25655      9732.9177      2160.9579    
      5000   5679.5398     -516.61902      0             -446.8759       6476.8393      2507.0991    
      6000   5487.5064     -506.17395      0             -438.78894     -44289.16       2223.8285    
      7000   5022.6343     -504.15768      0             -442.48117     -24012.716      2141.7122    
      8000   6017.7477     -532.81795      0             -458.92173      17780.471      1730.7405    
      9000   5604.4419     -540.67794      0             -471.857       -1860.922       1950.3246    
     10000   5537.2026     -543.20417      0             -475.2089      -4524.4026      1718.5593    
     11000   6185.1339     -533.67488      0             -457.72321      16614.588      1624.8334    
     12000   6120.5778     -534.9186       0             -459.75966      42164.994      1566.9399    
     13000   5056.541      -532.70307      0             -470.61019     -1863.391       1712.6905    
     14000   5332.6571     -531.09939      0             -465.61588      3297.7884      1492.5868    
     15000   6437.7737     -527.48502      0             -448.431        19161.817      1881.9182    
     16000   5565.5026     -544.99932      0             -476.65654     -10888.994      1712.5619    
     17000   6283.8271     -535.06812      0             -457.90452     -13408.656      1865.2342    
     18000   5451.495      -518.43065      0             -451.48785     -20461.187      1795.7658    
     19000   5619.1549     -531.72755      0             -462.72594     -60109.976      1706.8605    
     20000   5598.4932     -529.06643      0             -460.31853     -41230.796      1667.3692    
     21000   5797.3516     -528.82242      0             -457.6326      -45383.939      1641.5251    
     22000   5840.7597     -526.01363      0             -454.29077     -2117.5735      1776.6062    
     23000   5478.5775     -527.93244      0             -460.65708     -29308.825      1855.2214    
     24000   5969.3739     -531.94147      0             -458.63926     -28334.189      1693.0807    
     25000   5696.8426     -534.29612      0             -464.34052     -44833.798      1714.9961    
     26000   4946.0666     -539.6052       0             -478.86892     -13984.949      1524.2147    
     27000   6456.4809     -536.01493      0             -456.73119      12232.872      1732.7255    
     28000   6013.3141     -538.56003      0             -464.71825      13732.96       1760.3257    
     29000   5988.5886     -544.85365      0             -471.31549      12217.728      1597.5375    
     30000   5789.5965     -555.40594      0             -484.31135     -17462.092      1639.244     
     31000   5146.2471     -530.4513       0             -467.25686      28329.876      1830.1486    
     32000   5509.0622     -536.54195      0             -468.89225      36500.557      1867.3339    
     33000   5618.6659     -549.59356      0             -480.59795      4126.6951      1694.9326    
     34000   6115.8717     -543.6244       0             -468.52324     -4880.6266      1540.9965    
     35000   5860.8438     -554.92234      0             -482.95286      6504.166       1588.0282    
     36000   5472.3777     -554.1366       0             -486.93737     -26287.249      1455.8547    
     37000   5127.8189     -559.47469      0             -496.50655      35788.343      1541.7009    
     38000   5041.4429     -546.55236      0             -484.64489      19699.605      1567.8145    
     39000   4976.26       -552.45492      0             -491.34787     -31559.913      1366.0981    
     40000   6195.0076     -551.74371      0             -475.67079      24265.849      1297.0802    
     41000   5156.8866     -560.0955       0             -496.77041     -8676.0169      1447.8854    
     42000   5889.54       -550.73562      0             -478.41375     -2540.9939      1495.0911    
     43000   4601.5531     -549.72935      0             -493.2236       85027.76       1356.3552    
     44000   4930.8795     -533.68773      0             -473.13794      26478.619      1605.0729    
     45000   5202.5148     -556.99891      0             -493.11352     -17813.581      1462.0423    
     46000   5287.9437     -551.49457      0             -486.56014      4770.4553      1511.9304    
     47000   4678.8342     -546.95902      0             -489.50427     -12254.736      1557.6649    
     48000   5087.6566     -539.57385      0             -477.09888     -38669.905      1705.5552    
     49000   5654.0355     -554.38751      0             -484.95757      36563.316      1570.1038    
     50000   5201.1208     -570.63586      0             -506.76759      11006.563      1639.1552    
     51000   6013.7651     -562.52259      0             -488.67528     -26066.175      1742.6889    
     52000   5440.6285     -558.85801      0             -492.04865     -17737.313      1687.4669    
     53000   5902.8865     -546.27935      0             -473.7936       33429.91       1544.0154    
     54000   5152.6885     -558.69405      0             -495.42051      9151.0451      1720.0338    
     55000   5084.2342     -545.29151      0             -482.85857      37048.835      1706.7876    
     56000   5156.0951     -553.55624      0             -490.24086     -29483.365      1678.0005    
     57000   5158.9093     -554.24317      0             -490.89324     -32646.945      1684.6207    
     58000   4364.8292     -544.53612      0             -490.93726      19328.216      1725.0288    
     59000   5408.5235     -547.51697      0             -481.10185      5501.823       1660.351     
     60000   5891.0827     -553.35036      0             -481.00955      13826.72       1511.4382    
     61000   5572.8683     -557.62987      0             -489.19664     -42715.241      1557.0361    
     62000   4938.8582     -551.14812      0             -490.50035      34524.754      1591.3581    
     63000   4612.0127     -550.06309      0             -493.4289       33947.481      1623.4167    
     64000   4684.6712     -542.34172      0             -484.8153       20420.378      1539.0565    
     65000   5433.2712     -553.94089      0             -487.22188     -18809.679      1671.0396    
     66000   5420.2506     -549.06386      0             -482.50474      663.69937      1649.9786    
     67000   4842.0883     -553.31648      0             -493.85703      82019.286      1493.6264    
     68000   5528.6241     -543.24132      0             -475.3514       11271.474      1511.8802    
     69000   5085.7854     -552.7831       0             -490.33111      84792.066      1545.6697    
     70000   4905.7995     -550.27816      0             -490.03635      1445.3344      1542.8198    
     71000   5738.7516     -553.95869      0             -483.48846     -2271.1719      1502.2704    
     72000   5273.8706     -551.10723      0             -486.34561      7784.4307      1458.8556    
     73000   5041.2059     -557.5633       0             -495.65874     -58599.084      1550.157     
     74000   4679.3795     -551.25102      0             -493.78958      12120.951      1381.5016    
     75000   5302.3146     -551.54496      0             -486.43405      55501.312      1419.2835    
     76000   4970.7418     -552.48433      0             -491.44504      23901.574      1390.3083    
     77000   5786.2837     -535.31196      0             -464.25805     -15479.566      1475.5949    
     78000   4758.0891     -555.859        0             -497.43103     -61816.34       1426.6901    
     79000   5148.0348     -554.4082       0             -491.1918       16226.772      1396.3264    
     80000   4467.3933     -557.02949      0             -502.17118      11453.77       1494.1807    
Loop time of 6.52603 on 1 procs for 80000 steps with 96 atoms

Performance: 1059.143 ns/day, 0.023 hours/ns, 12258.597 timesteps/s, 1.177 Matom-step/s
99.3% CPU use with 1 MPI tasks x no OpenMP threads

MPI task timing breakdown:
Section |  min time  |  avg time  |  max time  |%varavg| %total
---------------------------------------------------------------
Pair    | 5.3988     | 5.3988     | 5.3988     |   0.0 | 82.73
Bond    | 0.0025668  | 0.0025668  | 0.0025668  |   0.0 |  0.04
Neigh   | 0.44732    | 0.44732    | 0.44732    |   0.0 |  6.85
Comm    | 0.20257    | 0.20257    | 0.20257    |   0.0 |  3.10
Output  | 0.010454   | 0.010454   | 0.010454   |   0.0 |  0.16
Modify  | 0.43008    | 0.43008    | 0.43008    |   0.0 |  6.59
Other   |            | 0.03427    |            |       |  0.53

Nlocal:             96 ave          96 max          96 min
Histogram: 1 0 0 0 0 0 0 0 0 0
Nghost:            522 ave         522 max         522 min
Histogram: 1 0 0 0 0 0 0 0 0 0
Neighs:              0 ave           0 max           0 min
Histogram: 1 0 0 0 0 0 0 0 0 0
FullNghs:         2860 ave        2860 max        2860 min
Histogram: 1 0 0 0 0 0 0 0 0 0

Total # of neighbors = 2860
Ave neighs/atom = 29.791667
Ave special neighs/atom = 0
Neighbor list builds = 3754
Dangerous builds = 0

fix npt1 all npt temp 5000 4000 0.1 iso 0 0 1
run 80000
Per MPI rank memory allocation (min/avg/max) = 8.549 | 8.549 | 8.549 Mbytes
   Step          Temp          E_pair         E_mol          TotEng         Press          Volume    
     80000   4467.3933     -557.02949      0             -502.17118      11453.77       1494.1807    
     81000   5255.0369     -558.63018      0             -494.09983      14376.428      1483.2961    
     82000   5377.0771     -549.44923      0             -483.42026     -2319.9964      1508.4829    
     83000   4500.7785     -556.64401      0             -501.37574     -28640.413      1467.5003    
     84000   5008.1655     -557.22463      0             -495.72579      569.57679      1609.7807    
     85000   4664.3108     -560.18074      0             -502.90433      30504.259      1558.503     
     86000   5772.8164     -556.07478      0             -485.18624      28419.096      1518.3465    
     87000   5205.5881     -550.73511      0             -486.81198      36192.156      1508.1278    
     88000   5166.7781     -562.3693       0             -498.92274      1142.2881      1586.8644    
     89000   5684.9047     -562.90498      0             -493.09598     -13919.29       1482.6852    
     90000   4369.6183     -551.98033      0             -498.32267     -29174.376      1552.9454    
     91000   4244.9538     -555.68698      0             -503.56016      27151.788      1487.5842    
     92000   4649.9024     -551.65507      0             -494.5556      -9819.6602      1519.3488    
     93000   5787.5199     -564.58495      0             -493.51586     -59248.697      1554.5277    
     94000   4076.3475     -559.29962      0             -509.24324     -40681.146      1667.2013    
     95000   5025.8935     -549.61789      0             -487.90135      13428.527      1554.6447    
     96000   3871.71       -548.79421      0             -501.25072     -37292.744      1619.8855    
     97000   5082.1086     -549.78925      0             -487.38241      32728.147      1582.4828    
     98000   4634.3825     -546.09711      0             -489.18822      9655.8459      1626.8317    
     99000   4441.9211     -563.02395      0             -508.47843     -6241.9941      1677.8303    
    100000   5274.3064     -563.55179      0             -498.78482      52471.826      1643.9237    
    101000   5256.359      -556.8411       0             -492.29452     -16412.783      1667.689     
    102000   4807.6494     -569.65524      0             -510.61868     -14920.542      1570.5555    
    103000   5399.5844     -560.34337      0             -494.03802     -29387.631      1681.4697    
    104000   4767.4682     -569.21879      0             -510.67565     -40312.86       1649.8357    
    105000   5364.8416     -559.29534      0             -493.41662     -31344.967      1665.1522    
    106000   5093.045      -567.73014      0             -505.189       -38003.023      1603.5795    
    107000   4143.326      -559.29253      0             -508.41367      17437.41       1617.5622    
    108000   4452.4289     -559.8018       0             -505.12724      62536.39       1644.184     
    109000   5602.0612     -566.61418      0             -497.82247      11829.853      1660.6184    
    110000   4832.521      -561.90657      0             -502.5646       32871.762      1590.1291    
    111000   5174.5152     -560.40013      0             -496.85856      29577.391      1538.7131    
    112000   5142.8245     -572.86109      0             -509.70867     -22109.571      1543.9601    
    113000   4378.5285     -558.7273       0             -504.96022     -751.39718      1593.0221    
    114000   5002.5724     -563.40633      0             -501.97618     -1326.5185      1619.6626    
    115000   4755.7831     -568.94529      0             -510.54564      5183.3361      1595.4984    
    116000   4791.5236     -571.83296      0             -512.99442     -6830.4304      1481.9588    
    117000   4795.9326     -573.76815      0             -514.87547      94585.394      1505.6444    
    118000   4272.0494     -558.70101      0             -506.24147      10662.385      1523.4908    
    119000   4296.5899     -564.88977      0             -512.12888     -33930.844      1604.0958    
    120000   4066.8302     -565.81294      0             -515.87343     -26150.301      1564.828     
    121000   4014.3309     -558.85782      0             -509.56299     -33918.194      1504.0616    
    122000   4772.6502     -560.27756      0             -501.67078     -22584.758      1553.3527    
    123000   4950.1499     -572.19168      0             -511.40526     -28039.846      1585.9204    
    124000   4151.0116     -568.37718      0             -517.40395     -23321.392      1564.3735    
    125000   4797.258      -562.60762      0             -503.69866     -11713.48       1441.6162    
    126000   3818.2645     -560.90393      0             -514.01674      193.20433      1617.9182    
    127000   5151.8007     -561.69122      0             -498.42858      26156.961      1626.7334    
    128000   4552.5909     -566.25058      0             -510.34606      17519.699      1517.1908    
    129000   4277.1159     -569.87312      0             -517.35136      21175.585      1512.2275    
    130000   4916.5925     -562.87978      0             -502.50544     -13239.112      1744.4125    
    131000   4693.5873     -566.59382      0             -508.95791      30145.711      1695.5573    
    132000   4538.96       -572.71818      0             -516.98105     -13232.146      1703.9552    
    133000   4546.4309     -568.54306      0             -512.71419     -16877.05       1705.0831    
    134000   4310.1234     -572.71758      0             -519.79049      8708.2342      1593.8527    
    135000   4516.3772     -569.87994      0             -514.42012      23478.77       1509.8301    
    136000   4376.0059     -556.03095      0             -502.29485     -49089.704      1795.4954    
    137000   3708.7115     -567.37782      0             -521.83591      7377.1058      1695.5339    
    138000   3847.2101     -566.17679      0             -518.93415      17701.264      1598.0438    
    139000   4378.938      -560.9196       0             -507.14749     -21475.633      1597.8383    
    140000   4321.1962     -569.08155      0             -516.0185       31151.642      1650.34      
    141000   4417.8354     -563.49301      0             -509.24325     -24926.637      1615.9816    
    142000   4630.4301     -571.32008      0             -514.45973     -6931.3557      1571.4002    
    143000   4002.5006     -575.13429      0             -525.98473      13487.466      1611.5433    
    144000   4035.0315     -575.52672      0             -525.97769     -25135.586      1609.3425    
    145000   4568.421      -565.54065      0             -509.44175     -36465.622      1618.5061    
    146000   4173.9867     -574.67129      0             -523.41593     -33607.813      1572.0272    
    147000   3922.8231     -575.26931      0             -527.09817      7644.8666      1558.2224    
    148000   4204.4356     -569.88573      0             -518.25647     -8055.9899      1552.2196    
    149000   4070.9207     -574.66891      0             -524.67917     -1282.5632      1515.1636    
    150000   3441.8599     -568.76766      0             -526.5026       36592.004      1510.766     
    151000   4682.7079     -571.4119       0             -513.90959      31044.211      1539.3525    
    152000   4041.701      -571.85117      0             -522.22024      6437.7407      1523.376     
    153000   4395.7943     -583.42242      0             -529.44332      14184.492      1508.976     
    154000   5077.7764     -562.98625      0             -500.6326       52952.089      1479.519     
    155000   3541.4237     -570.67168      0             -527.18401      10506.791      1487.1118    
    156000   3782.317      -569.09118      0             -522.64541     -17756.7        1561.0281    
    157000   4266.7414     -571.49275      0             -519.09839      11363.536      1588.0848    
    158000   4194.2463     -573.04846      0             -521.54432      32283.696      1546.3183    
    159000   4272.2249     -574.67185      0             -522.21015     -2883.0754      1536.1996    
    160000   3513.3287     -575.46663      0             -532.32395     -38283.053      1630.0556    
Loop time of 6.37599 on 1 procs for 80000 steps with 96 atoms

Performance: 1084.068 ns/day, 0.022 hours/ns, 12547.078 timesteps/s, 1.205 Matom-step/s
99.5% CPU use with 1 MPI tasks x no OpenMP threads

MPI task timing breakdown:
Section |  min time  |  avg time  |  max time  |%varavg| %total
---------------------------------------------------------------
Pair    | 5.3112     | 5.3112     | 5.3112     |   0.0 | 83.30
Bond    | 0.0026051  | 0.0026051  | 0.0026051  |   0.0 |  0.04
Neigh   | 0.40104    | 0.40104    | 0.40104    |   0.0 |  6.29
Comm    | 0.19982    | 0.19982    | 0.19982    |   0.0 |  3.13
Output  | 0.008648   | 0.008648   | 0.008648   |   0.0 |  0.14
Modify  | 0.42014    | 0.42014    | 0.42014    |   0.0 |  6.59
Other   |            | 0.03257    |            |       |  0.51

Nlocal:             96 ave          96 max          96 min
Histogram: 1 0 0 0 0 0 0 0 0 0
Nghost:            484 ave         484 max         484 min
Histogram: 1 0 0 0 0 0 0 0 0 0
Neighs:              0 ave           0 max           0 min
Histogram: 1 0 0 0 0 0 0 0 0 0
FullNghs:         2616 ave        2616 max        2616 min
Histogram: 1 0 0 0 0 0 0 0 0 0

Total # of neighbors = 2616
Ave neighs/atom = 27.25
Ave special neighs/atom = 0
Neighbor list builds = 3316
Dangerous builds = 0

fix npt1 all npt temp 4000 4000 0.1 iso 0 0 1
run 80000
Per MPI rank memory allocation (min/avg/max) = 8.549 | 8.549 | 8.549 Mbytes
   Step          Temp          E_pair         E_mol          TotEng         Press          Volume    
    160000   3513.3287     -575.46663      0             -532.32395     -38283.053      1630.0556    
    161000   3931.0527     -571.10145      0             -522.82925     -27639.179      1626.7337    
    162000   3748.9488     -574.93562      0             -528.8996       5496.4975      1534.7455    
    163000   4065.5864     -574.84075      0             -524.91652      20024.036      1508.4986    
    164000   3788.8181     -579.25473      0             -532.72913     -5243.8616      1500.7297    
    165000   3786.6435     -569.12943      0             -522.63053      4490.2215      1474.5389    
    166000   4308.299      -571.52886      0             -518.62418     -8979.8901      1491.42      
    167000   3893.8041     -576.6416       0             -528.8268       2178.5009      1419.375     
    168000   3906.6429     -567.85956      0             -519.8871       12406.359      1525.8597    
    169000   3809.9986     -578.6406       0             -531.85491      5516.3485      1441.427     
    170000   4778.7563     -572.83896      0             -514.1572       35639.873      1455.5564    
    171000   4366.5395     -577.10299      0             -523.48313     -20885.589      1578.542     
    172000   4115.9403     -573.92644      0             -523.38387     -7598.4429      1559.6637    
    173000   3913.8976     -565.15533      0             -517.09378     -11477.97       1635.0429    
    174000   4010.4911     -569.94036      0             -520.69268     -12601.96       1644.9715    
    175000   3848.109      -578.83621      0             -531.58253     -41148.503      1692.1929    
    176000   4074.6539     -572.88222      0             -522.84663      12539.682      1504.4304    
    177000   3953.0558     -575.34941      0             -526.80702     -12321.769      1588.3423    
    178000   3855.9658     -575.67918      0             -528.32903     -4128.6564      1576.9397    
    179000   4133.708      -571.62893      0             -520.86818      7693.1492      1618.6039    
    180000   3617.6567     -577.11692      0             -532.69313     -35429.106      1689.0202    
    181000   3988.4481     -569.97604      0             -520.99903     -12681.68       1657.9209    
    182000   3983.2933     -572.82252      0             -523.90882      15202.857      1642.9991    
    183000   3852.3437     -566.84435      0             -519.53867     -22668.708      1623.4802    
    184000   4392.7464     -577.75107      0             -523.8094       16705.694      1647.8866    
    185000   3962.4926     -574.64696      0             -525.98868     -15791.157      1647.071     
    186000   4816.0744     -578.37547      0             -519.23545     -7769.4998      1630.2991    
    187000   3345.711      -574.11671      0             -533.03233      881.20711      1591.5977    
    188000   4171.6085     -577.40384      0             -526.17769      6278.2143      1580.2265    
    189000   3479.7074     -582.78667      0             -540.05686     -18643.726      1596.6669    
    190000   4560.3985     -578.8238       0             -522.82341     -19730.552      1603.0057    
    191000   4433.5412     -573.16674      0             -518.72412      4718.4677      1616.1645    
    192000   3402.4827     -578.33877      0             -536.55726      30549.649      1530.3329    
    193000   3940.306      -573.41137      0             -525.02554      10146.519      1570.2665    
    194000   3700.2093     -574.07681      0             -528.6393      -11296.593      1611.5528    
    195000   3883.4205     -566.72948      0             -519.04219     -17085.345      1658.095     
    196000   4283.8609     -571.7211       0             -519.11651     -30491.431      1669.9396    
    197000   4302.8913     -580.97331      0             -528.13504      12962.051      1623.8749    
    198000   4435.5635     -578.71325      0             -524.2458       13681.827      1601.6262    
    199000   4266.3784     -571.21435      0             -518.82444     -5141.7538      1691.7206    
    200000   3286.3633     -574.81018      0             -534.45458     -29095.719      1669.1214    
    201000   3857.9774     -567.86333      0             -520.48847     -32814.975      1720.5775    
    202000   3476.9759     -569.74596      0             -527.04969      35726.596      1612.3743    
    203000   4314.5317     -572.51965      0             -519.53844      27728.818      1603.5532    
    204000   3815.8058     -573.56154      0             -526.70454      46327.073      1504.6256    
    205000   4168.4899     -563.21369      0             -512.02583      50944.369      1581.2109    
    206000   4007.2908     -563.71688      0             -514.50849      29677.374      1651.155     
    207000   4341.5965     -574.51579      0             -521.20223      1227.8091      1609.9275    
    208000   3699.5085     -560.18979      0             -514.76089     -27107.199      1623.1495    
    209000   3821.5039     -567.85741      0             -520.93044      12616.386      1618.8895    
    210000   4478.7492     -557.98807      0             -502.99032     -7269.505       1588.8732    
    211000   4011.2121     -570.91209      0             -521.65555     -23015.476      1699.9335    
    212000   3951.3022     -567.66816      0             -519.1473       44375.592      1583.7362    
    213000   3972.4315     -575.7362       0             -526.95588     -35550.465      1670.3141    
    214000   4310.0279     -566.67243      0             -513.74653     -5674.2485      1579.6153    
    215000   4057.425      -571.15522      0             -521.33121      13363.879      1582.784     
    216000   3871.8032     -567.41196      0             -519.86732      34075.236      1503.1599    
    217000   4197.7771     -568.46393      0             -516.91643     -9988.4772      1494.6774    
    218000   4140.7705     -570.43766      0             -519.59018     -30156.052      1565.7808    
    219000   3672.0997     -573.03041      0             -527.93807     -38626.785      1490.9806    
    220000   3861.5765     -573.62578      0             -526.20672      6887.5765      1501.5303    
    221000   3968.025      -568.48409      0             -519.75788     -15465.131      1556.4789    
    222000   4045.9757     -576.34771      0             -526.66428     -21767.865      1508.2043    
    223000   4307.5089     -564.3123       0             -511.41732     -30972.203      1488.96      
    224000   3734.7822     -567.5209       0             -521.65884     -46240.081      1574.8939    
    225000   3938.6529     -568.7585       0             -520.39297      14490.983      1495.1001    
    226000   4159.7655     -572.98066      0             -521.89993     -6633.3684      1442.4097    
    227000   3632.8743     -571.75594      0             -527.14529      768.59379      1496.4801    
    228000   3368.1973     -565.67495      0             -524.31445     -69494.134      1516.7088    
    229000   4864.4173     -569.27509      0             -509.54144     -33546.008      1496.2433    
    230000   4040.6383     -571.872        0             -522.25412      53956.024      1493.5568    
    231000   3935.8003     -578.85005      0             -530.51955     -6835.9788      1516.4556    
    232000   4091.2352     -567.18243      0             -516.94324     -21609.938      1463.3206    
    233000   3753.4091     -562.54158      0             -516.45079     -27369.256      1549.5615    
    234000   4110.6067     -564.50703      0             -514.02996      43198.602      1531.224     
    235000   3929.9213     -568.87258      0             -520.61427      19677.713      1531.7383    
    236000   4205.3688     -573.96815      0             -522.32742     -13964.26       1454.1938    
    237000   3992.198      -565.69515      0             -516.6721      -32066.984      1495.2808    
    238000   3771.73       -568.67602      0             -522.36025      22965.848      1411.376     
    239000   3961.7908     -577.7466       0             -529.09695      65000.722      1382.5333    
    240000   3468.3019     -578.42597      0             -535.83622     -22551.021      1338.0237    
Loop time of 6.25006 on 1 procs for 80000 steps with 96 atoms

Performance: 1105.910 ns/day, 0.022 hours/ns, 12799.883 timesteps/s, 1.229 Matom-step/s
99.4% CPU use with 1 MPI tasks x no OpenMP threads

MPI task timing breakdown:
Section |  min time  |  avg time  |  max time  |%varavg| %total
---------------------------------------------------------------
Pair    | 5.2167     | 5.2167     | 5.2167     |   0.0 | 83.47
Bond    | 0.0026201  | 0.0026201  | 0.0026201  |   0.0 |  0.04
Neigh   | 0.37025    | 0.37025    | 0.37025    |   0.0 |  5.92
Comm    | 0.19448    | 0.19448    | 0.19448    |   0.0 |  3.11
Output  | 0.0088044  | 0.0088044  | 0.0088044  |   0.0 |  0.14
Modify  | 0.42461    | 0.42461    | 0.42461    |   0.0 |  6.79
Other   |            | 0.03259    |            |       |  0.52

Nlocal:             96 ave          96 max          96 min
Histogram: 1 0 0 0 0 0 0 0 0 0
Nghost:            522 ave         522 max         522 min
Histogram: 1 0 0 0 0 0 0 0 0 0
Neighs:              0 ave           0 max           0 min
Histogram: 1 0 0 0 0 0 0 0 0 0
FullNghs:         3190 ave        3190 max        3190 min
Histogram: 1 0 0 0 0 0 0 0 0 0

Total # of neighbors = 3190
Ave neighs/atom = 33.229167
Ave special neighs/atom = 0
Neighbor list builds = 3063
Dangerous builds = 0

fix npt1 all npt temp 4000 3000 0.1 iso 0 0  1
run 80000
Per MPI rank memory allocation (min/avg/max) = 8.549 | 8.549 | 8.549 Mbytes
   Step          Temp          E_pair         E_mol          TotEng         Press          Volume    
    240000   3468.3019     -578.42597      0             -535.83622     -22551.021      1338.0237    
    241000   4351.2395     -569.85449      0             -516.42251      22600.239      1396.3904    
    242000   3831.4023     -568.79987      0             -521.75135     -34711.548      1417.4994    
    243000   4031.8731     -582.43981      0             -532.92957      16692.386      1401.2597    
    244000   4026.8458     -574.81893      0             -525.37042     -6098.7756      1331.0329    
    245000   4074.0622     -579.30658      0             -529.27826      64136.283      1316.8465    
    246000   3019.7502     -572.89403      0             -535.81236      9613.226       1336.6362    
    247000   4183.2489     -565.75391      0             -514.38481     -11632.882      1320.7875    
    248000   4175.2597     -582.19278      0             -530.92178      30906.661      1346.3149    
    249000   3842.9839     -580.63576      0             -533.44501      29503.409      1330.6015    
    250000   3867.9595     -571.63251      0             -524.13507      36967.68       1355.3788    
    251000   3657.5178     -582.45561      0             -537.54234     -14458.469      1397.7022    
    252000   4047.2404     -579.65072      0             -529.95177     -14470.695      1406.7162    
    253000   4126.7554     -577.2023       0             -526.52692     -1784.9253      1432.7861    
    254000   3608.0458     -576.52428      0             -532.21851     -33187.161      1430.0769    
    255000   3445.0897     -576.78744      0             -534.48272     -22613.129      1428.2904    
    256000   3399.4039     -583.46646      0             -541.72275     -4593.6431      1413.8851    
    257000   4319.8399     -578.94156      0             -525.89516     -41559.898      1442.1729    
    258000   4424.65       -574.73985      0             -520.40642      8356.5628      1427.6836    
    259000   3607.2651     -576.93492      0             -532.63874      14128.544      1348.7919    
    260000   3352.8784     -574.31329      0             -533.1409       2953.6237      1407.6601    
    261000   2990.6891     -575.12239      0             -538.39759     -5173.385       1414.8317    
    262000   3430.9466     -578.10694      0             -535.9759      -42106.755      1353.4763    
    263000   3409.6828     -568.97171      0             -527.10178      42512.263      1376.4143    
    264000   3857.0384     -583.65226      0             -536.28893      1597.2307      1392.2217    
    265000   3731.0734     -581.46188      0             -535.64537     -14838.302      1406.6353    
    266000   3872.6493     -573.769        0             -526.21397     -31128.462      1381.681     
    267000   3545.1884     -579.90529      0             -536.37139      32621.38       1395.17      
    268000   4149.5688     -575.23463      0             -524.27912     -31564.248      1337.5637    
    269000   3786.2103     -585.93853      0             -539.44495      41298.987      1334.5179    
    270000   3326.9591     -572.67896      0             -531.82486     -4935.0922      1398.0377    
    271000   3436.0191     -582.32421      0             -540.13088     -17358.415      1415.8419    
    272000   3638.2233     -577.23674      0             -532.5604      -2123.964       1377.2379    
    273000   3553.2287     -581.53902      0             -537.90639     -7481.4069      1352.0982    
    274000   3180.042      -585.21917      0             -546.16917     -2962.7701      1373.0144    
    275000   3495.2494     -583.87121      0             -540.95055      10988.806      1338.6552    
    276000   4005.3601     -579.31019      0             -530.12552     -13097.072      1358.381     
    277000   4002.0153     -586.71245      0             -537.56885     -25407.777      1385.5192    
    278000   3641.0135     -584.70096      0             -539.99035     -7429.7433      1381.6228    
    279000   3317.2465     -582.32598      0             -541.59115     -18412.713      1341.8224    
    280000   3219.5712     -580.08456      0             -540.54915      25998.118      1335.7092    
    281000   2982.2637     -581.22842      0             -544.60707      643.3664       1363.2523    
    282000   3534.469      -583.19162      0             -539.78936      34638.14       1330.52      
    283000   3817.7299     -582.55647      0             -535.67584      35849.703      1337.7271    
    284000   3453.8199     -586.69515      0             -544.28323      26608.07       1322.4316    
    285000   3353.6299     -585.52658      0             -544.34497     -4884.3377      1275.3357    
    286000   2972.438      -585.40713      0             -548.90644     -5049.028       1305.6952    
    287000   3504.8603     -581.91163      0             -538.87295      20617.59       1390.6573    
    288000   2788.4599     -579.00584      0             -544.76435     -24670.344      1410.9206    
    289000   3454.26       -577.74058      0             -535.32325      61281.579      1372.603     
    290000   3613.2337     -584.55415      0             -540.18468     -12706.428      1353.4525    
    291000   2890.3109     -580.32045      0             -544.82826     -19.120121      1340.1176    
    292000   4059.8425     -586.98808      0             -537.13438      56724.338      1291.89      
    293000   3693.5618     -586.19936      0             -540.84348     -4441.7249      1340.0329    
    294000   3202.7777     -590.25185      0             -550.92266     -29713.017      1305.7683    
    295000   3607.9613     -587.71608      0             -543.41134      23559.883      1307.3828    
    296000   3213.7424     -592.18154      0             -552.71771      6776.556       1289.6799    
    297000   3130.5467     -583.77295      0             -545.33073     -15719.895      1348.0873    
    298000   3592.0846     -587.22955      0             -543.11978     -11800.932      1324.0255    
    299000   3662.217      -585.14232      0             -540.17135      111.98567      1355.4696    
    300000   3427.374      -589.35602      0             -547.26884     -25734.62       1334.5038    
    301000   2999.7051     -580.50453      0             -543.66901     -3103.1525      1344.4746    
    302000   3253.9003     -588.08031      0             -548.12335     -39099.218      1354.4727    
    303000   3391.4631     -580.58449      0             -538.93829      12047.074      1331.1141    
    304000   3263.4598     -584.90559      0             -544.83124      65858.231      1311.5404    
    305000   3248.6051     -589.81864      0             -549.9267      -7463.9301      1325.2179    
    306000   3239.893      -590.17104      0             -550.38608     -18844.372      1292.5731    
    307000   3230.6967     -582.26284      0             -542.59081     -10500.368      1358.1796    
    308000   3142.6084     -587.15209      0             -548.56176     -21404.204      1401.1189    
    309000   3166.2926     -582.73658      0             -543.85541      17283.984      1363.4515    
    310000   3396.9173     -584.34886      0             -542.63569      21273.294      1348.5503    
    311000   3120.7633     -586.66589      0             -548.34381     -4849.636       1370.1309    
    312000   3251.7793     -586.62583      0             -546.69491     -2330.095       1359.8317    
    313000   2657.4026     -587.89837      0             -555.26623     -37480.884      1338.7739    
    314000   2705.9904     -585.45503      0             -552.22624     -17163.033      1396.6743    
    315000   3579.499      -592.82889      0             -548.87367     -2647.0674      1385.9802    
    316000   2802.5205     -588.16883      0             -553.75468     -5186.5986      1379.2069    
    317000   2972.9723     -586.14504      0             -549.63779     -24581.531      1386.671     
    318000   3057.7828     -588.72727      0             -551.17858     -1213.4644      1358.4833    
    319000   3316.789      -586.32794      0             -545.59872      20382.415      1359.4002    
    320000   2972.8762     -590.30488      0             -553.79881      24014.879      1372.943     
Loop time of 6.6303 on 1 procs for 80000 steps with 96 atoms

Performance: 1042.487 ns/day, 0.023 hours/ns, 12065.818 timesteps/s, 1.158 Matom-step/s
99.4% CPU use with 1 MPI tasks x no OpenMP threads

MPI task timing breakdown:
Section |  min time  |  avg time  |  max time  |%varavg| %total
---------------------------------------------------------------
Pair    | 5.5812     | 5.5812     | 5.5812     |   0.0 | 84.18
Bond    | 0.0026157  | 0.0026157  | 0.0026157  |   0.0 |  0.04
Neigh   | 0.35612    | 0.35612    | 0.35612    |   0.0 |  5.37
Comm    | 0.20492    | 0.20492    | 0.20492    |   0.0 |  3.09
Output  | 0.010473   | 0.010473   | 0.010473   |   0.0 |  0.16
Modify  | 0.44236    | 0.44236    | 0.44236    |   0.0 |  6.67
Other   |            | 0.03264    |            |       |  0.49

Nlocal:             96 ave          96 max          96 min
Histogram: 1 0 0 0 0 0 0 0 0 0
Nghost:            536 ave         536 max         536 min
Histogram: 1 0 0 0 0 0 0 0 0 0
Neighs:              0 ave           0 max           0 min
Histogram: 1 0 0 0 0 0 0 0 0 0
FullNghs:         3066 ave        3066 max        3066 min
Histogram: 1 0 0 0 0 0 0 0 0 0

Total # of neighbors = 3066
Ave neighs/atom = 31.9375
Ave special neighs/atom = 0
Neighbor list builds = 2803
Dangerous builds = 0

fix npt1 all npt temp 3000 3000 0.1 iso 0 0 1
run 80000
Per MPI rank memory allocation (min/avg/max) = 8.549 | 8.549 | 8.549 Mbytes
   Step          Temp          E_pair         E_mol          TotEng         Press          Volume    
    320000   2972.8762     -590.30488      0             -553.79881      24014.879      1372.943     
    321000   3467.2336     -583.46418      0             -540.88754     -8901.8374      1368.7998    
    322000   2536.9451     -590.98382      0             -559.83086      34920.143      1356.1143    
    323000   2962.4771     -592.30693      0             -555.92856      28599.826      1355.6966    
    324000   2908.899      -591.42425      0             -555.7038       8377.5648      1354.2217    
    325000   2938.8018     -588.10407      0             -552.01643      56396.265      1336.6667    
    326000   2883.7872     -585.30532      0             -549.89323      214.59453      1321.2051    
    327000   2807.0499     -593.20453      0             -558.73476     -16815.109      1339.8123    
    328000   3487.2727     -588.08788      0             -545.26517     -8465.0152      1369.0107    
    329000   3071.3336     -586.19311      0             -548.47802     -21863.821      1461.5838    
    330000   3158.2472     -585.78739      0             -547.00502     -13922.022      1487.6886    
    331000   3322.0543     -591.17347      0             -550.3796      -18805.568      1445.7294    
    332000   2851.1637     -588.74161      0             -553.73014      34900.102      1419.4607    
    333000   3007.0466     -587.50228      0             -550.57661      21289.142      1341.4891    
    334000   2993.3932     -589.13625      0             -552.37823      9833.6052      1388.0374    
    335000   3428.263      -589.07265      0             -546.97456      12407.933      1380.4012    
    336000   3135.2225     -593.92226      0             -555.42262     -41226.883      1443.7046    
    337000   2927.1253     -585.95932      0             -550.01506      8094.738       1444.3009    
    338000   2897.033      -590.01953      0             -554.4448      -25454.877      1446.2042    
    339000   3285.3897     -589.45435      0             -549.11071     -7446.2455      1410.9851    
    340000   3070.8854     -590.65378      0             -552.94418      6593.2726      1409.2402    
    341000   2925.4549     -591.33604      0             -555.41229      41888.713      1362.3553    
    342000   3006.5311     -592.10577      0             -555.18643      15031.8        1386.3623    
    343000   3227.2905     -591.62809      0             -551.99789     -8920.3441      1405.9285    
    344000   2894.8188     -590.99102      0             -555.44347      68242.925      1378.625     
    345000   2964.2304     -588.55202      0             -552.15211      20451.507      1430.2034    
    346000   2704.5703     -583.90765      0             -550.6963       7309.0253      1375.1397    
    347000   2527.4252     -588.7777       0             -557.74164      14832.499      1382.2778    
    348000   3661.1399     -589.53663      0             -544.57888      62763.215      1264.6923    
    349000   2807.3755     -591.12517      0             -556.6514       26149.706      1349.7179    
    350000   2928.6957     -586.71858      0             -550.75504     -26.4651        1355.8262    
    351000   2537.4924     -590.89343      0             -559.73375      3666.5594      1414.2867    
    352000   2707.4732     -584.0554       0             -550.8084       17984.983      1364.4846    
    353000   3193.7541     -588.17832      0             -548.95993     -17050.641      1387.403     
    354000   3227.3166     -591.97099      0             -552.34047      17449.44       1420.0773    
    355000   3045.2167     -592.72104      0             -555.32665     -5293.7766      1366.3326    
    356000   3176.4637     -585.80483      0             -546.79876      18835.675      1365.6376    
    357000   2992.643      -587.14359      0             -550.39479      47266.48       1319.8839    
    358000   2621.4984     -590.01529      0             -557.82404      24118.185      1327.412     
    359000   2772.6712     -584.16602      0             -550.11841      15031.393      1362.0097    
    360000   3105.561      -585.16203      0             -547.02663     -6621.8322      1361.9202    
    361000   2500.0461     -587.334        0             -556.63415     -61583.327      1406.0572    
    362000   2882.4256     -587.92997      0             -552.5346      -4962.9314      1378.5826    
    363000   2976.8139     -586.66053      0             -550.1061      -16573.804      1365.5929    
    364000   2619.9474     -586.07451      0             -553.9023      -1321.9265      1393.7669    
    365000   3001.4785     -584.15749      0             -547.3002      -29535.145      1400.7759    
    366000   3213.9294     -580.95424      0             -541.48811     -41481.499      1390.5941    
    367000   2958.34       -581.61839      0             -545.29082     -24668.732      1411.2875    
    368000   2923.828      -583.40594      0             -547.50217      2415.2458      1383.1561    
    369000   2831.3969     -583.8737       0             -549.10495     -33902.689      1378.1366    
    370000   3113.0527     -588.68688      0             -550.45948      30613.264      1363.9894    
    371000   2796.5487     -585.30127      0             -550.96045      25180.876      1419.6626    
    372000   2846.2453     -583.69437      0             -548.7433       29771.221      1329.2673    
    373000   2803.8799     -588.32491      0             -553.89407      8918.5967      1326.3629    
    374000   3021.0983     -588.03883      0             -550.9406      -33145.504      1381.7387    
    375000   3268.5695     -589.24381      0             -549.10671     -8046.131       1312.8596    
    376000   2858.2465     -590.47637      0             -555.37792     -10349.999      1329.5268    
    377000   3149.9723     -593.29084      0             -554.61008      1213.4709      1325.0655    
    378000   2990.948      -591.41423      0             -554.68624      55402.118      1290.5239    
    379000   2960.7088     -591.60452      0             -555.24787     -11321.454      1322.4571    
    380000   2560.8145     -589.19001      0             -557.74394      579.17828      1367.194     
    381000   3279.3985     -591.11421      0             -550.84413     -4203.6676      1313.9292    
    382000   2942.1198     -583.41452      0             -547.28613      3209.6705      1283.9558    
    383000   3015.2898     -590.6002       0             -553.57331     -29858.272      1407.495     
    384000   2900.8727     -586.73454      0             -551.11266     -25654.204      1366.1128    
    385000   2854.2486     -587.29632      0             -552.24696     -364.78885      1305.4957    
    386000   2998.4975     -590.95422      0             -554.13353     -1006.5436      1273.011     
    387000   2452.1835     -583.43735      0             -553.32524     -47984.394      1376.1675    
    388000   3036.8477     -589.7286       0             -552.43698      14205.854      1325.625     
    389000   3037.423      -589.1608       0             -551.86211      16140.968      1355.4194    
    390000   2952.5368     -591.27699      0             -555.02068      11794.529      1392.9808    
    391000   3213.5504     -591.21282      0             -551.75134     -3205.8871      1425.137     
    392000   3116.8407     -586.64693      0             -548.37302     -31077.264      1465.5174    
    393000   3097.4811     -585.14769      0             -547.11151      13200.677      1433.8619    
    394000   2712.7439     -586.35118      0             -553.03946      15997.838      1370.5725    
    395000   3330.4691     -588.16788      0             -547.27067      5925.8409      1357.4991    
    396000   3058.0168     -585.32356      0             -547.77199     -26804.59       1424.6299    
    397000   3019.5818     -591.52275      0             -554.44315     -15524.685      1429.7164    
    398000   2634.6456     -586.42571      0             -554.07302      12588.383      1393.8766    
    399000   2929.372      -590.4297       0             -554.45785      7861.3439      1366.8832    
    400000   3111.6305     -582.91967      0             -544.70974      32083.404      1433.6366    
Loop time of 6.50363 on 1 procs for 80000 steps with 96 atoms

Performance: 1062.791 ns/day, 0.023 hours/ns, 12300.817 timesteps/s, 1.181 Matom-step/s
99.4% CPU use with 1 MPI tasks x no OpenMP threads

MPI task timing breakdown:
Section |  min time  |  avg time  |  max time  |%varavg| %total
---------------------------------------------------------------
Pair    | 5.4927     | 5.4927     | 5.4927     |   0.0 | 84.46
Bond    | 0.0027839  | 0.0027839  | 0.0027839  |   0.0 |  0.04
Neigh   | 0.32158    | 0.32158    | 0.32158    |   0.0 |  4.94
Comm    | 0.20459    | 0.20459    | 0.20459    |   0.0 |  3.15
Output  | 0.0086155  | 0.0086155  | 0.0086155  |   0.0 |  0.13
Modify  | 0.44116    | 0.44116    | 0.44116    |   0.0 |  6.78
Other   |            | 0.03216    |            |       |  0.49

Nlocal:             96 ave          96 max          96 min
Histogram: 1 0 0 0 0 0 0 0 0 0
Nghost:            526 ave         526 max         526 min
Histogram: 1 0 0 0 0 0 0 0 0 0
Neighs:              0 ave           0 max           0 min
Histogram: 1 0 0 0 0 0 0 0 0 0
FullNghs:         2914 ave        2914 max        2914 min
Histogram: 1 0 0 0 0 0 0 0 0 0

Total # of neighbors = 2914
Ave neighs/atom = 30.354167
Ave special neighs/atom = 0
Neighbor list builds = 2521
Dangerous builds = 0

fix npt1 all npt temp 3000 2000 0.1 iso 0 0 1
run 80000
Per MPI rank memory allocation (min/avg/max) = 8.549 | 8.549 | 8.549 Mbytes
   Step          Temp          E_pair         E_mol          TotEng         Press          Volume    
    400000   3111.6305     -582.91967      0             -544.70974      32083.404      1433.6366    
    401000   2909.5276     -592.05958      0             -556.33141      16569.076      1402.6635    
    402000   3219.6227     -586.90723      0             -547.37118      39472.557      1352.7902    
    403000   3259.5137     -590.96743      0             -550.94154      6858.4306      1355.6987    
    404000   2799.2901     -586.93407      0             -552.55959      28319.599      1365.6201    
    405000   2992.485      -591.08075      0             -554.33389     -51906.581      1423.3382    
    406000   2715.4945     -588.01482      0             -554.66932     -5549.9221      1499.3661    
    407000   2972.9166     -591.34578      0             -554.83921     -13009.154      1473.169     
    408000   2811.6691     -590.10178      0             -555.57529     -30519.84       1472.5688    
    409000   2529.9718     -587.90997      0             -556.84264     -49005.575      1480.2881    
    410000   2374.8352     -594.47086      0             -565.30856     -870.06652      1407.0294    
    411000   3258.6123     -595.88522      0             -555.8704      -9829.4372      1400.3541    
    412000   2678.8177     -595.78463      0             -562.88951     -11962.501      1432.5281    
    413000   3115.9981     -593.80553      0             -555.54196     -14804.685      1415.8969    
    414000   3119.5841     -593.8412       0             -555.5336       32174.666      1385.9809    
    415000   3062.8974     -591.62089      0             -554.00939      20129.673      1408.012     
    416000   2629.7311     -594.84822      0             -562.55588      18269.585      1449.4537    
    417000   2845.3415     -589.35786      0             -554.41788     -10689.164      1395.937     
    418000   3064.8133     -597.18617      0             -559.55114      6633.7358      1448.7842    
    419000   2721.9243     -596.62003      0             -563.19557     -19911.159      1491.6929    
    420000   2920.353      -592.86774      0             -557.00664     -35169.089      1469.6104    
    421000   2760.6895     -593.56117      0             -559.66069     -3886.1396      1404.6101    
    422000   2712.5665     -595.83104      0             -562.5215       55136.083      1408.1369    
    423000   2811.7612     -590.09253      0             -555.56491     -14227.899      1346.8806    
    424000   2911.1497     -598.61126      0             -562.86318      36977.586      1395.4676    
    425000   2932.7074     -589.34467      0             -553.33186      21314.808      1433.0234    
    426000   2612.2802     -589.84548      0             -557.76743     -24810.856      1471.259     
    427000   2408.2756     -592.72785      0             -563.15491      2346.3788      1424.6177    
    428000   2519.0339     -597.15035      0             -566.21733     -13227.888      1468.8396    
    429000   2910.0314     -591.33401      0             -555.59966     -6734.7593      1441.5774    
    430000   2728.9241     -593.65957      0             -560.14916     -11458.077      1418.5907    
    431000   2293.8663     -597.36513      0             -569.19711      2832.0421      1413.7574    
    432000   2865.7671     -592.77343      0             -557.58263      9451.4938      1398.7534    
    433000   2461.6464     -597.8654       0             -567.63709      30479.683      1389.4599    
    434000   2638.6268     -600.63728      0             -568.2357       22684          1386.8632    
    435000   3034.4524     -599.43044      0             -562.16824      25044.142      1382.7538    
    436000   2821.3303     -599.47167      0             -564.82654      6849.6619      1411.6634    
    437000   2618.1644     -596.9224       0             -564.77209      17665.532      1413.7657    
    438000   2603.6785     -598.51078      0             -566.53835     -15766.818      1457.9312    
    439000   2598.8947     -593.86478      0             -561.9511      -7074.8008      1458.1485    
    440000   2359.689      -592.68748      0             -563.71118     -15311.47       1395.9324    
    441000   2378.647      -599.52087      0             -570.31177     -36079.041      1478.6635    
    442000   2551.8104     -592.69944      0             -561.36394     -23286.368      1437.2544    
    443000   2598.8369     -594.32493      0             -562.41195      10762.109      1431.283     
    444000   2165.5486     -596.69092      0             -570.09861     -24787.047      1410.8658    
    445000   2786.181      -597.83425      0             -563.62075      13319.732      1363.435     
    446000   2197.7518     -599.56614      0             -572.57838      5397.0948      1374.3094    
    447000   2363.0559     -597.45522      0             -568.43757      13681.154      1392.1094    
    448000   2705.7807     -595.47873      0             -562.25252     -7914.462       1418.4073    
    449000   2371.2458     -600.83335      0             -571.71513      28326.755      1409.5986    
    450000   2609.907      -597.14498      0             -565.09607      35827.384      1396.8918    
    451000   2084.9847     -595.11979      0             -569.51678     -27847.871      1444.7699    
    452000   2282.7511     -598.915        0             -570.88347     -20235.489      1448.6312    
    453000   2481.5679     -600.39562      0             -569.92268     -19234.383      1451.1789    
    454000   2383.6874     -599.77332      0             -570.50232      1895.665       1455.169     
    455000   2327.4167     -600.24089      0             -571.66088      35832.911      1377.6055    
    456000   2002.6647     -600.43768      0             -575.84553      49697.757      1379.5174    
    457000   2127.4661     -598.79212      0             -572.66745      2250.2769      1395.9156    
    458000   1986.8857     -601.01639      0             -576.618        296.82505      1459.7088    
    459000   2126.5135     -598.8054       0             -572.69243     -2714.7356      1433.1258    
    460000   1742.8588     -602.73997      0             -581.33817      8814.8206      1399.1076    
    461000   2250.7021     -598.53767      0             -570.89969      30282.944      1382.1741    
    462000   2244.1361     -603.10017      0             -575.54282      37245.559      1360.2949    
    463000   2160.575      -600.50135      0             -573.97011      17039.945      1401.5192    
    464000   2459.5621     -602.12937      0             -571.92665     -17559.23       1412.5873    
    465000   1980.022      -603.32832      0             -579.01422     -103.26891      1394.2168    
    466000   2027.5292     -600.82195      0             -575.92447     -9464.9021      1385.1267    
    467000   2256.3033     -604.00629      0             -576.29953     -8098.8268      1374.0267    
    468000   2088.6897     -606.41756      0             -580.76905      14963.942      1378.2167    
    469000   2287.9854     -601.67231      0             -573.5765      -17094.641      1405.7535    
    470000   2132.6261     -602.9203       0             -576.73226     -2496.5929      1375.0999    
    471000   2105.758      -604.47198      0             -578.61387      22731.997      1377.9913    
    472000   2056.8036     -603.85995      0             -578.60299     -742.48799      1335.2675    
    473000   2004.8375     -600.31674      0             -575.69791      10831.12       1310.379     
    474000   2101.2392     -606.09251      0             -580.28989      45018.329      1336.0425    
    475000   2170.1411     -601.96619      0             -575.31747      28406.636      1342.7553    
    476000   2064.8375     -607.69363      0             -582.33801      25060.008      1393.4221    
    477000   2039.5071     -605.53472      0             -580.49016      13922.013      1387.81      
    478000   2000.4751     -602.14311      0             -577.57785     -39019.813      1412.2197    
    479000   1887.9804     -604.33322      0             -581.14937     -42215.175      1402.3399    
    480000   1759.2404     -600.87192      0             -579.26895     -17101.907      1397.5272    
Loop time of 6.29326 on 1 procs for 80000 steps with 96 atoms

Performance: 1098.319 ns/day, 0.022 hours/ns, 12712.020 timesteps/s, 1.220 Matom-step/s
99.4% CPU use with 1 MPI tasks x no OpenMP threads

MPI task timing breakdown:
Section |  min time  |  avg time  |  max time  |%varavg| %total
---------------------------------------------------------------
Pair    | 5.3343     | 5.3343     | 5.3343     |   0.0 | 84.76
Bond    | 0.0028058  | 0.0028058  | 0.0028058  |   0.0 |  0.04
Neigh   | 0.28097    | 0.28097    | 0.28097    |   0.0 |  4.46
Comm    | 0.20029    | 0.20029    | 0.20029    |   0.0 |  3.18
Output  | 0.0088021  | 0.0088021  | 0.0088021  |   0.0 |  0.14
Modify  | 0.43431    | 0.43431    | 0.43431    |   0.0 |  6.90
Other   |            | 0.03182    |            |       |  0.51

Nlocal:             96 ave          96 max          96 min
Histogram: 1 0 0 0 0 0 0 0 0 0
Nghost:            530 ave         530 max         530 min
Histogram: 1 0 0 0 0 0 0 0 0 0
Neighs:              0 ave           0 max           0 min
Histogram: 1 0 0 0 0 0 0 0 0 0
FullNghs:         3024 ave        3024 max        3024 min
Histogram: 1 0 0 0 0 0 0 0 0 0

Total # of neighbors = 3024
Ave neighs/atom = 31.5
Ave special neighs/atom = 0
Neighbor list builds = 2220
Dangerous builds = 0

fix npt1 all npt temp 2000 2000 0.1 iso 0 0 1
run 80000
Per MPI rank memory allocation (min/avg/max) = 8.549 | 8.549 | 8.549 Mbytes
   Step          Temp          E_pair         E_mol          TotEng         Press          Volume    
    480000   1759.2404     -600.87192      0             -579.26895     -17101.907      1397.5272    
    481000   1754.6498     -606.78231      0             -585.23571     -21161.154      1336.7159    
    482000   2152.9961     -603.11849      0             -576.68031      7291.8438      1381.9102    
    483000   1896.4643     -601.17548      0             -577.88744      39084.388      1405.0007    
    484000   1842.5491     -605.85094      0             -583.22497     -15371.703      1390.7697    
    485000   2044.3044     -601.81095      0             -576.70748     -6355.5538      1369.7231    
    486000   2010.7586     -605.66603      0             -580.97449     -15107.715      1397.687     
    487000   1932.0026     -601.85806      0             -578.13363     -14637.744      1417.229     
    488000   2187.0239     -598.75347      0             -571.89745      53990.173      1387.5479    
    489000   1929.2616     -603.79871      0             -580.10793      30882.739      1375.4413    
    490000   2191.9991     -604.07         0             -577.15288      1124.2679      1398.5049    
    491000   1584.6901     -602.72774      0             -583.2682      -18585.599      1380.5815    
    492000   1897.6851     -604.1384       0             -580.83537      2418.4137      1389.3951    
    493000   2075.1249     -603.02315      0             -577.54121      17244.926      1382.2594    
    494000   2079.4888     -604.16283      0             -578.6273       41577.662      1388.5142    
    495000   2079.3831     -606.47395      0             -580.93972     -2616.7627      1390.742     
    496000   2100.6961     -604.68055      0             -578.8846       22357.544      1374.0487    
    497000   2088.3767     -601.11857      0             -575.4739       19320.717      1375.9479    
    498000   1750.7426     -603.06888      0             -581.57026     -12841.287      1418.6186    
    499000   1999.8441     -599.71904      0             -575.16153     -27782.53       1432.5734    
    500000   2193.5167     -603.76895      0             -576.83319      10327.49       1380.88      
    501000   2270.9663     -604.63208      0             -576.74526      14349.978      1353.7851    
    502000   2021.3809     -606.98495      0             -582.16297      1628.5285      1403.2128    
    503000   2266.6593     -598.81218      0             -570.97825      18563.262      1445.3011    
    504000   2030.5778     -604.76865      0             -579.83373     -18838.045      1454.5255    
    505000   2176.0954     -607.64813      0             -580.9263      -17596.78       1418.3428    
    506000   2087.9358     -601.89959      0             -576.26033      15985.835      1388.5814    
    507000   2027.3954     -604.06781      0             -579.17197     -16361.562      1441.8953    
    508000   1953.9792     -599.50793      0             -575.51362     -15182.603      1386.8738    
    509000   1966.0361     -603.27149      0             -579.12913      31857.703      1377.7518    
    510000   2005.9866     -604.94992      0             -580.31697     -15788.76       1441.8582    
    511000   2134.3891     -602.10125      0             -575.89156     -1605.4286      1418.5542    
    512000   1641.8133     -607.24428      0             -587.08328     -19585.558      1409.8418    
    513000   1848.3485     -601.29285      0             -578.59566      27674.535      1358.0716    
    514000   1859.3913     -606.23058      0             -583.39779      12872.47       1361.6544    
    515000   1908.2074     -602.24556      0             -578.81332     -6371.6069      1399.4596    
    516000   2053.19       -604.23232      0             -579.01973      3285.7988      1453.9176    
    517000   1934.7898     -604.05751      0             -580.29885      49859.165      1354.3943    
    518000   2032.3932     -607.94784      0             -582.99063     -25212.465      1418.1583    
    519000   2014.0343     -602.13495      0             -577.40319      12753.086      1432.4359    
    520000   2261.2773     -597.26947      0             -569.50163     -4081.318       1439.8045    
    521000   1981.416      -603.38584      0             -579.05462     -12337.328      1395.4897    
    522000   1963.7184     -601.44923      0             -577.33533      27739.863      1405.3634    
    523000   2184.2349     -605.27585      0             -578.45407     -8344.0999      1435.2538    
    524000   2206.9403     -603.48943      0             -576.38884      13109.651      1385.5867    
    525000   1999.0631     -605.03206      0             -580.48413     -18827.593      1404.8551    
    526000   2151.3866     -603.24287      0             -576.82446      28924.372      1405.3851    
    527000   1925.7258     -599.0279       0             -575.38054     -19168.909      1437.6283    
    528000   1984.4209     -603.46326      0             -579.09514     -53968.369      1486.4682    
    529000   2216.7548     -604.62294      0             -577.40183      31289.188      1413.4422    
    530000   2192.2269     -602.64751      0             -575.72759      12187.721      1419.5199    
    531000   1874.3563     -602.49289      0             -579.47633     -20473.054      1441.1566    
    532000   2214.5876     -605.09832      0             -577.90382     -11992.674      1418.6955    
    533000   2125.9587     -605.22412      0             -579.11796      10675.753      1380.2973    
    534000   1844.4394     -603.14129      0             -580.4921      -8371.799       1412.8071    
    535000   1973.371      -602.96925      0             -578.73682     -1751.5179      1413.8217    
    536000   1907.8543     -606.90995      0             -583.48204     -3276.8563      1395.867     
    537000   1666.6139     -605.94387      0             -585.47833     -21384.355      1367.6496    
    538000   1977.248      -601.12879      0             -576.84875      5250.655       1380.6064    
    539000   2215.9703     -601.03847      0             -573.82699     -50374.155      1397.7177    
    540000   2034.55       -604.29656      0             -579.31287      19213.79       1359.6165    
    541000   1899.6521     -603.01172      0             -579.68454     -24706.917      1389.3437    
    542000   2019.254      -605.20767      0             -580.41181     -13776.862      1393.2252    
    543000   2081.8805     -602.16474      0             -576.59984     -39157.659      1472.4986    
    544000   1899.2937     -606.39609      0             -583.0733       15169.505      1391.8483    
    545000   2106.173      -604.34218      0             -578.47898     -15806.866      1383.92      
    546000   1876.9353     -603.84112      0             -580.79289     -10232.489      1402.3246    
    547000   1735.5939     -601.84792      0             -580.53532     -12587.181      1397.1871    
    548000   2116.5991     -606.05501      0             -580.06378     -442.27574      1403.006     
    549000   1948.8761     -607.62165      0             -583.69001      26669.653      1390.3354    
    550000   1719.8044     -605.85514      0             -584.73644      29964.471      1363.8217    
    551000   1943.5988     -603.98624      0             -580.1194      -5609.9268      1403.9396    
    552000   2156.7307     -604.52333      0             -578.03929     -16603.935      1400.3035    
    553000   2164.1606     -601.95199      0             -575.37672     -2897.9708      1449.5642    
    554000   1841.7418     -604.7224       0             -582.10634     -11426.372      1434.9313    
    555000   1934.0443     -603.37953      0             -579.63002      6667.0215      1388.6705    
    556000   2046.485      -606.7392       0             -581.60895      29041.849      1372.1999    
    557000   2097.9234     -603.96654      0             -578.20464     -26719.196      1428.6867    
    558000   1813.684      -604.87226      0             -582.60074     -31413.325      1443.5764    
    559000   2045.596      -602.13627      0             -577.01693     -6537.1807      1386.4022    
    560000   1859.2875     -608.64036      0             -585.80884     -11817.728      1392.8787    
Loop time of 6.2467 on 1 procs for 80000 steps with 96 atoms

Performance: 1106.504 ns/day, 0.022 hours/ns, 12806.764 timesteps/s, 1.229 Matom-step/s
99.3% CPU use with 1 MPI tasks x no OpenMP threads

MPI task timing breakdown:
Section |  min time  |  avg time  |  max time  |%varavg| %total
---------------------------------------------------------------
Pair    | 5.3304     | 5.3304     | 5.3304     |   0.0 | 85.33
Bond    | 0.0026122  | 0.0026122  | 0.0026122  |   0.0 |  0.04
Neigh   | 0.24024    | 0.24024    | 0.24024    |   0.0 |  3.85
Comm    | 0.19826    | 0.19826    | 0.19826    |   0.0 |  3.17
Output  | 0.0091614  | 0.0091614  | 0.0091614  |   0.0 |  0.15
Modify  | 0.4351     | 0.4351     | 0.4351     |   0.0 |  6.97
Other   |            | 0.03095    |            |       |  0.50

Nlocal:             96 ave          96 max          96 min
Histogram: 1 0 0 0 0 0 0 0 0 0
Nghost:            530 ave         530 max         530 min
Histogram: 1 0 0 0 0 0 0 0 0 0
Neighs:              0 ave           0 max           0 min
Histogram: 1 0 0 0 0 0 0 0 0 0
FullNghs:         3006 ave        3006 max        3006 min
Histogram: 1 0 0 0 0 0 0 0 0 0

Total # of neighbors = 3006
Ave neighs/atom = 31.3125
Ave special neighs/atom = 0
Neighbor list builds = 1881
Dangerous builds = 0

fix npt1 all npt temp 2000 1000 0.1 iso 0 0 1
run 80000
Per MPI rank memory allocation (min/avg/max) = 8.549 | 8.549 | 8.549 Mbytes
   Step          Temp          E_pair         E_mol          TotEng         Press          Volume    
    560000   1859.2875     -608.64036      0             -585.80884     -11817.728      1392.8787    
    561000   1866.8001     -602.10473      0             -579.18096     -14046.686      1446.4542    
    562000   1933.2606     -607.84663      0             -584.10674      13336.63       1382.0365    
    563000   2015.1161     -605.7784       0             -581.03335      8552.8061      1345.8186    
    564000   1893.3945     -602.52345      0             -579.2731      -4295.1121      1402.2789    
    565000   1633.0502     -606.18561      0             -586.13222     -19426.237      1430.2094    
    566000   2130.0165     -606.93353      0             -580.77754      46625.884      1389.3503    
    567000   1938.2609     -605.94723      0             -582.14594     -50947.296      1396.0681    
    568000   1721.1045     -608.61536      0             -587.48069     -14503.611      1376.8631    
    569000   2146.8033     -606.8416       0             -580.47947     -4905.5226      1385.6849    
    570000   1787.4668     -605.59121      0             -583.64163      16462.3        1388.2282    
    571000   1902.48       -604.51984      0             -581.15793      1949.8966      1427.8991    
    572000   1917.4521     -605.42985      0             -581.88409      9265.006       1422.3763    
    573000   1864.638      -605.11428      0             -582.21706      20191.423      1399.4655    
    574000   1911.8047     -607.72043      0             -584.24402      5721.6358      1406.3635    
    575000   1805.2212     -606.32981      0             -584.16221      8051.5157      1395.1161    
    576000   1874.6802     -606.11719      0             -583.09665      3173.9533      1383.0066    
    577000   1829.3681     -611.06629      0             -588.60218     -4216.4263      1393.1327    
    578000   1680.5261     -608.1024       0             -587.46602     -24141.001      1420.7852    
    579000   1794.1342     -602.14726      0             -580.1158      -31436.924      1437.9917    
    580000   1649.8327     -608.60751      0             -588.34803      23733.63       1353.6536    
    581000   1783.1464     -604.7305       0             -582.83398      9435.9319      1379.7817    
    582000   1789.5429     -607.03081      0             -585.05574     -21943.666      1406.9138    
    583000   1594.1656     -606.95192      0             -587.37602     -14746.312      1427.5513    
    584000   1467.2329     -609.02763      0             -591.01043     -9838.6973      1382.9589    
    585000   1569.3657     -608.23396      0             -588.9626       16595.853      1397.0688    
    586000   1643.3845     -609.15273      0             -588.97244     -12933.92       1433.2126    
    587000   1645.312      -604.94648      0             -584.74252     -1986.6254      1389.0978    
    588000   1450.1434     -607.69024      0             -589.88289     -7718.8711      1391.5038    
    589000   1791.4139     -607.77435      0             -585.7763       22184.377      1321.6389    
    590000   1726.9063     -612.09824      0             -590.89232      1127.988       1365.6068    
    591000   1786.1706     -610.21753      0             -588.28387      134.60033      1407.9496    
    592000   1530.3519     -607.7148       0             -588.92252     -6198.5454      1360.2792    
    593000   1576.156      -609.3982       0             -590.04345      16161.598      1395.7112    
    594000   1712.5596     -607.55331      0             -586.52357     -21025.244      1390.8421    
    595000   1508.2398     -611.08679      0             -592.56604      9846.8351      1347.2772    
    596000   1565.3569     -609.65122      0             -590.42909     -13584.438      1416.0784    
    597000   1620.8532     -613.96839      0             -594.06478      17582.839      1348.9695    
    598000   1479.0202     -608.75872      0             -590.59677      3325.5416      1341.9462    
    599000   1647.4993     -613.51592      0             -593.2851      -5709.8118      1404.2665    
    600000   1658.321      -610.85048      0             -590.48677     -4734.6292      1407.4094    
    601000   1615.8033     -612.25075      0             -592.40915      8672.4361      1382.761     
    602000   1396.9714     -609.07883      0             -591.92442     -26997.247      1416.0736    
    603000   1296.1388     -613.47481      0             -597.5586      -20473.68       1434.9014    
    604000   1412.806      -610.79036      0             -593.4415       2657.18        1349.4454    
    605000   1261.0919     -613.06723      0             -597.58138     -1925.3275      1355.6187    
    606000   1404.3732     -612.43355      0             -595.18825     -20688.909      1415.7612    
    607000   1694.8315     -610.53271      0             -589.72067      10604.636      1374.2636    
    608000   1406.5192     -612.92935      0             -595.6577      -3622.1995      1362.2963    
    609000   1429.2609     -615.83164      0             -598.28073      8881.306       1351.9578    
    610000   1184.9334     -611.30078      0             -596.75013     -37293.674      1426.5989    
    611000   1424.5959     -612.18563      0             -594.692       -14087.093      1381.15      
    612000   1211.6463     -614.40522      0             -599.52655      22462.767      1349.4487    
    613000   1385.7488     -614.72074      0             -597.70415     -9511.7206      1402.928     
    614000   1308.0227     -613.07692      0             -597.01477      6625.5774      1336.3486    
    615000   1466.5428     -614.23159      0             -596.22287     -1960.3647      1352.9567    
    616000   1300.8684     -613.34914      0             -597.37484     -2191.2841      1368.893     
    617000   1435.2187     -613.10762      0             -595.48354      12416.02       1377.3278    
    618000   1292.1982     -612.69845      0             -596.83062      5918.8257      1400.5526    
    619000   1298.6457     -615.88652      0             -599.93952      28972.643      1324.9263    
    620000   1109.1729     -617.41927      0             -603.79894      2351.1733      1371.7087    
    621000   1435.6264     -616.0176       0             -598.38852      25347.924      1350.4934    
    622000   1111.498      -614.81336      0             -601.16449     -13746.542      1392.3076    
    623000   1244.024      -616.5394       0             -601.26314     -27084.177      1377.9958    
    624000   1276.6409     -614.60736      0             -598.93058      2849.4381      1320.0557    
    625000   1119.0518     -615.94591      0             -602.20427      12895.022      1373.4191    
    626000   1149.0965     -617.23734      0             -603.12676     -4354.9339      1383.4315    
    627000   1195.559      -615.32353      0             -600.6424      -7635.5145      1383.7735    
    628000   1170.8356     -615.42078      0             -601.04326      9429.2528      1368.5244    
    629000   1143.7271     -618.98714      0             -604.94249     -19287.134      1399.9472    
    630000   1227.9622     -613.48757      0             -598.40854      1011.9474      1376.067     
    631000   941.86618     -615.26902      0             -603.70317     -5399.8619      1372.3506    
[...]
Neighs:              0 ave           0 max           0 min
Histogram: 1 0 0 0 0 0 0 0 0 0
FullNghs:         3150 ave        3150 max        3150 min
Histogram: 1 0 0 0 0 0 0 0 0 0

Total # of neighbors = 3150
Ave neighs/atom = 32.8125
Ave special neighs/atom = 0
Neighbor list builds = 176
Dangerous builds = 0


fix npt1 all npt temp 500 10 0.1 iso 0 0 1
run 80000
Per MPI rank memory allocation (min/avg/max) = 8.549 | 8.549 | 8.549 Mbytes
   Step          Temp          E_pair         E_mol          TotEng         Press          Volume    
    880000   564.51902     -625.70391      0             -618.77178     -10696.98       1330.6422    
    881000   511.443       -625.39609      0             -619.11572      2677.2141      1334.8658    
    882000   520.75475     -625.77674      0             -619.38202      2561.8412      1349.5965    
    883000   563.55252     -625.52358      0             -618.60332      2559.9257      1328.7923    
    884000   435.81674     -625.38563      0             -620.03392      17273.871      1329.5701    
    885000   462.7097      -624.20251      0             -618.52057     -7481.6132      1370.0272    
    886000   527.48808     -626.20753      0             -619.73013      3311.7985      1360.0074    
    887000   416.42843     -626.47756      0             -621.36394      602.36614      1348.6833    
    888000   482.69583     -625.77946      0             -619.85209     -545.29502      1348.5262    
    889000   386.63628     -626.38977      0             -621.64198     -6294.7623      1342.4759    
    890000   460.3794      -625.50827      0             -619.85494      3007.205       1333.4241    
    891000   495.67533     -627.06942      0             -620.98267     -8779.9437      1338.382     
    892000   451.49322     -625.91498      0             -620.37077      3948.6194      1331.9583    
    893000   439.13917     -626.66048      0             -621.26798      15401.271      1338.06      
    894000   433.25514     -624.7399       0             -619.41965      6271.7612      1342.6113    
    895000   399.2308      -626.43027      0             -621.52783     -2706.8015      1346.3332    
    896000   402.00004     -626.11161      0             -621.17516      1520.1703      1349.3538    
    897000   362.30049     -626.87284      0             -622.42389     -1969.4518      1346.2648    
    898000   384.44747     -626.36402      0             -621.64312      7812.1881      1345.4692    
    899000   336.766       -626.33087      0             -622.19548      15709.739      1333.2309    
    900000   395.92834     -626.11781      0             -621.25593      3691.0951      1329.2033    
    901000   295.36938     -626.21517      0             -622.58811     -9920.8987      1365.5964    
    902000   328.42458     -627.13002      0             -623.09706     -816.22773      1328.2609    
    903000   343.81387     -626.44303      0             -622.2211       2523.3396      1338.9816    
    904000   366.73376     -627.18293      0             -622.67955      1430.2317      1344.6936    
    905000   340.3134      -627.29206      0             -623.11311      3834.1916      1336.5414    
    906000   386.07336     -627.02027      0             -622.2794      -666.30997      1349.2671    
    907000   250.25964     -627.24367      0             -624.17055      10588.789      1343.7032    
    908000   348.10749     -627.5193       0             -623.24464      438.58105      1339.9547    
    909000   327.47464     -626.49016      0             -622.46886      11123.571      1325.8402    
    910000   327.0293      -627.52931      0             -623.51348     -1953.5332      1349.331     
    911000   316.93397     -627.64728      0             -623.75542     -540.07938      1342.2193    
    912000   334.75261     -627.16522      0             -623.05456      3058.9561      1337.806     
    913000   301.92691     -627.22065      0             -623.51307      10380.106      1340.6566    
    914000   284.59624     -627.66153      0             -624.16677      11215.328      1338.0985    
    915000   295.24597     -628.09133      0             -624.4658      -2300.7214      1343.4142    
    916000   297.5403      -628.15174      0             -624.49803     -10142.813      1350.5569    
    917000   276.15454     -627.72962      0             -624.33852     -8003.7762      1343.519     
    918000   262.12393     -628.09714      0             -624.87834      5213.4526      1340.3524    
    919000   285.25444     -627.79956      0             -624.29671     -6254.7616      1362.8158    
    920000   249.62532     -628.50489      0             -625.43956     -3302.1023      1338.8448    
    921000   250.91755     -628.55867      0             -625.47747      1423.3013      1336.7287    
    922000   263.52258     -628.51653      0             -625.28055      5434.738       1335.1401    
    923000   228.91622     -628.62982      0             -625.8188       827.1086       1333.7494    
    924000   251.03246     -628.30078      0             -625.21817     -14179.111      1365.086     
    925000   199.27441     -628.60567      0             -626.15863     -3134.6293      1339.5838    
    926000   180.79338     -628.85365      0             -626.63356      3262.1451      1344.322     
    927000   218.97486     -628.7776       0             -626.08866     -2811.4707      1339.5744    
    928000   193.96542     -629.13345      0             -626.75161      14771.613      1332.9998    
    929000   210.13341     -629.05751      0             -626.47713      3597.8649      1346.0704    
    930000   178.16153     -629.53086      0             -627.34309     -635.88086      1346.0812    
    931000   203.51084     -629.26101      0             -626.76196     -3428.1752      1345.4141    
    932000   158.91064     -629.4177       0             -627.46632     -11832.363      1340.1698    
    933000   157.88906     -629.02375      0             -627.08492     -4679.7142      1342.0876    
    934000   168.68733     -629.36903      0             -627.2976      -3832.1709      1341.5339    
    935000   163.75271     -629.54984      0             -627.53901      9229.126       1334.1305    
    936000   174.0667      -629.23665      0             -627.09916      293.69768      1339.3498    
    937000   153.8542      -629.72174      0             -627.83246     -2614.3994      1340.1205    
    938000   160.84437     -629.32264      0             -627.34752      6384.1909      1332.7415    
    939000   134.56175     -629.68243      0             -628.03005     -5607.8864      1335.7132    
    940000   126.08254     -629.7677       0             -628.21944      4999.8923      1334.2955    
    941000   117.42828     -629.85775      0             -628.41576     -8160.4766      1343.8084    
    942000   114.65081     -629.77401      0             -628.36613     -1906.3815      1328.7299    
    943000   108.17134     -630.0738       0             -628.74548      7111.4774      1331.1155    
    944000   128.94024     -630.07562      0             -628.49227      9746.8031      1334.7416    
    945000   104.68042     -630.13219      0             -628.84674     -3640.2507      1343.9202    
    946000   91.466256     -630.19153      0             -629.06835      4638.3917      1330.2583    
    947000   79.232804     -630.56438      0             -629.59142     -692.89629      1335.2609    
    948000   74.271109     -630.33411      0             -629.42208     -6661.0768      1344.8425    
    949000   73.415887     -630.66751      0             -629.76598     -3376.6447      1343.7994    
    950000   72.934478     -630.75651      0             -629.8609       2654.0572      1338.9983    
    951000   61.512817     -630.74174      0             -629.98638     -1040.2315      1337.2864    
    952000   58.234413     -630.73772      0             -630.02262      5147.3259      1323.6291    
    953000   50.89533      -630.89089      0             -630.26591      262.56184      1335.8092    
    954000   45.365604     -630.86513      0             -630.30805     -1394.1864      1335.0173    
    955000   39.002946     -630.99604      0             -630.5171       9096.9469      1333.8853    
    956000   38.888022     -631.11106      0             -630.63353      829.63365      1334.3721    
    957000   31.90133      -631.20164      0             -630.8099      -935.07213      1334.6337    
    958000   21.742149     -631.21313      0             -630.94614     -3755.8507      1336.5682    
    959000   15.181164     -631.28835      0             -631.10192     -3730.5065      1333.3275    
    960000   11.165021     -631.38434      0             -631.24724     -827.33975      1334.6879    
Loop time of 6.42765 on 1 procs for 80000 steps with 96 atoms

Performance: 1075.354 ns/day, 0.022 hours/ns, 12446.226 timesteps/s, 1.195 Matom-step/s
95.9% CPU use with 1 MPI tasks x no OpenMP threads

MPI task timing breakdown:
Section |  min time  |  avg time  |  max time  |%varavg| %total
---------------------------------------------------------------
Pair    | 5.7171     | 5.7171     | 5.7171     |   0.0 | 88.95
Bond    | 0.0030142  | 0.0030142  | 0.0030142  |   0.0 |  0.05
Neigh   | 0.0030606  | 0.0030606  | 0.0030606  |   0.0 |  0.05
Comm    | 0.19949    | 0.19949    | 0.19949    |   0.0 |  3.10
Output  | 0.010436   | 0.010436   | 0.010436   |   0.0 |  0.16
Modify  | 0.46244    | 0.46244    | 0.46244    |   0.0 |  7.19
Other   |            | 0.03209    |            |       |  0.50

Nlocal:             96 ave          96 max          96 min
Histogram: 1 0 0 0 0 0 0 0 0 0
Nghost:            544 ave         544 max         544 min
Histogram: 1 0 0 0 0 0 0 0 0 0
Neighs:              0 ave           0 max           0 min
Histogram: 1 0 0 0 0 0 0 0 0 0
FullNghs:         3114 ave        3114 max        3114 min
Histogram: 1 0 0 0 0 0 0 0 0 0

Total # of neighbors = 3114
Ave neighs/atom = 32.4375
Ave special neighs/atom = 0
Neighbor list builds = 23
Dangerous builds = 0

fix npt1 all npt temp 10 10 0.1 iso 0 0 1
run 80000
Per MPI rank memory allocation (min/avg/max) = 8.549 | 8.549 | 8.549 Mbytes
   Step          Temp          E_pair         E_mol          TotEng         Press          Volume    
    960000   11.165021     -631.38434      0             -631.24724     -827.33975      1334.6879    
    961000   9.6277246     -631.39815      0             -631.27992     -503.73515      1333.1654    
    962000   9.4267557     -631.36779      0             -631.25203     -752.55274      1335.9907    
    963000   9.9344307     -631.3567       0             -631.23471     -102.18704      1335.9405    
    964000   9.7792266     -631.38367      0             -631.26359      54.638817      1332.8198    
    965000   9.3726074     -631.39121      0             -631.27611     -1281.0995      1338.1808    
    966000   9.3785557     -631.39917      0             -631.284        901.56348      1331.1257    
    967000   9.6713224     -631.38163      0             -631.26287      2208.7612      1334.2133    
    968000   8.5286656     -631.37175      0             -631.26702      142.34083      1333.44      
    969000   10.856687     -631.365        0             -631.23169     -3553.8804      1336.1437    
    970000   9.9769676     -631.39074      0             -631.26822     -3234.2747      1337.5764    
    971000   11.651195     -631.3579       0             -631.21482     -708.95333      1334.053     
    972000   9.5898371     -631.3728       0             -631.25503     -2976.2875      1339.0226    
    973000   9.7337317     -631.39394      0             -631.27441      777.3546       1331.1091    
    974000   9.9131851     -631.37138      0             -631.24965      2388.8501      1334.8827    
    975000   9.3905071     -631.36385      0             -631.24854      1883.966       1332.6419    
    976000   8.5980489     -631.37067      0             -631.26509      239.43364      1335.0969    
    977000   9.3375734     -631.37095      0             -631.25629     -480.59423      1336.1467    
    978000   8.3019386     -631.38656      0             -631.28461     -2152.9413      1334.341     
    979000   11.122056     -631.38252      0             -631.24594     -196.31429      1339.0383    
    980000   10.465795     -631.36685      0             -631.23833      4220.2796      1330.7628    
    981000   9.7517723     -631.41365      0             -631.2939       3171.5906      1333.8634    
    982000   10.590553     -631.37998      0             -631.24993      4859.7802      1333.7047    
    983000   8.7457972     -631.37099      0             -631.26359      1836.1417      1333.8043    
    984000   9.3553132     -631.34427      0             -631.22939     -1979.3846      1336.2859    
    985000   10.961449     -631.37865      0             -631.24405      837.97583      1333.6432    
    986000   10.385272     -631.38162      0             -631.25409     -496.49843      1335.6654    
    987000   9.770894      -631.39261      0             -631.27263     -407.36622      1334.8296    
    988000   11.25131      -631.39921      0             -631.26105      13.24915       1332.9166    
    989000   9.2977936     -631.36325      0             -631.24907     -2066.6095      1336.4514    
    990000   10.384745     -631.39253      0             -631.265        701.60921      1332.9562    
    991000   10.519322     -631.38306      0             -631.25389     -1580.4398      1336.1202    
    992000   9.7766648     -631.37771      0             -631.25765     -947.0198       1334.8381    
    993000   10.24966      -631.37529      0             -631.24942     -1721.5757      1337.7159    
    994000   10.34428      -631.37387      0             -631.24685     -690.28095      1334.5146    
    995000   8.933531      -631.36821      0             -631.25851      13.631952      1336.7577    
    996000   11.028608     -631.37694      0             -631.24151     -3547.5965      1337.2956    
    997000   10.998618     -631.40075      0             -631.26569     -104.44646      1333.7839    
    998000   10.327648     -631.37942      0             -631.2526       274.72068      1336.0384    
    999000   10.393825     -631.38776      0             -631.26013      3669.8801      1330.7655    
   1000000   10.486975     -631.36295      0             -631.23417     -925.35541      1333.6427    
   1001000   9.7109006     -631.38185      0             -631.2626       1486.8611      1334.077     
   1002000   9.1735616     -631.37291      0             -631.26026      1363.6535      1333.4186    
   1003000   11.708242     -631.38191      0             -631.23814      888.98395      1335.6861    
   1004000   9.3976129     -631.37946      0             -631.26406      1267.9897      1333.7936    
   1005000   11.595251     -631.38361      0             -631.24122      610.30007      1332.1077    
   1006000   10.246546     -631.38421      0             -631.25838      419.34104      1332.9844    
   1007000   10.238038     -631.36081      0             -631.23509      405.63858      1333.6532    
   1008000   11.436439     -631.38943      0             -631.249       -2464.2178      1337.8271    
   1009000   8.6320862     -631.36677      0             -631.26077     -1690.7455      1335.5999    
   1010000   11.160042     -631.35012      0             -631.21308     -2571.1568      1338.3133    
   1011000   9.2426749     -631.37642      0             -631.26293     -1957.3132      1336.0691    
   1012000   9.8844267     -631.35874      0             -631.23736      95.56563       1334.0285    
   1013000   11.0496       -631.382        0             -631.24631     -610.75309      1337.3266    
   1014000   9.3349915     -631.37965      0             -631.26501     -2516.1342      1337.3136    
   1015000   11.788575     -631.38006      0             -631.2353      -1681.5793      1337.0209    
   1016000   9.9741801     -631.38891      0             -631.26643      274.49366      1332.7501    
   1017000   9.4230328     -631.36481      0             -631.2491      -651.30114      1334.6344    
   1018000   10.959865     -631.37065      0             -631.23606      760.68268      1332.1799    
   1019000   10.75853      -631.3692       0             -631.23708      5750.5483      1331.3502    
   1020000   9.3612799     -631.3753       0             -631.26034      3250.9419      1333.511     
   1021000   9.565419      -631.38374      0             -631.26628     -1571.8803      1334.6928    
   1022000   11.149596     -631.37786      0             -631.24094      1434.0136      1333.4107    
   1023000   11.738626     -631.38132      0             -631.23717      1319.5863      1333.9437    
   1024000   9.361114      -631.37217      0             -631.25722     -3864.4436      1338.9228    
   1025000   10.61178      -631.39046      0             -631.26015     -2303.0626      1332.8229    
   1026000   9.6582243     -631.37911      0             -631.26051     -1866.9182      1335.4949    
   1027000   9.4946774     -631.37428      0             -631.25769     -330.61399      1333.0092    
   1028000   10.956023     -631.37052      0             -631.23599      2388.0682      1335.0481    
   1029000   9.476271      -631.38803      0             -631.27166     -41.248117      1335.1718    
   1030000   10.256138     -631.38165      0             -631.25571     -1510.9211      1334.029     
   1031000   10.275821     -631.3852       0             -631.25902      699.11715      1335.1425    
   1032000   10.020512     -631.36183      0             -631.23878      364.21744      1335.6645    
   1033000   9.8695542     -631.37002      0             -631.24883      1398.5196      1334.4699    
   1034000   10.098082     -631.39438      0             -631.27038      2972.2655      1334.251     
   1035000   8.860528      -631.38987      0             -631.28107     -688.81267      1334.893     
   1036000   10.398833     -631.37123      0             -631.24354      4379.4018      1334.0918    
   1037000   8.6425364     -631.36987      0             -631.26374      1499.5567      1332.8531    
   1038000   9.255887      -631.3733       0             -631.25964     -303.3986       1334.2832    
   1039000   10.278968     -631.35589      0             -631.22966      1485.9277      1332.8712    
   1040000   9.2983147     -631.37855      0             -631.26437      2164.723       1331.8789    
Loop time of 6.37971 on 1 procs for 80000 steps with 96 atoms

Performance: 1083.435 ns/day, 0.022 hours/ns, 12539.757 timesteps/s, 1.204 Matom-step/s
97.0% CPU use with 1 MPI tasks x no OpenMP threads

MPI task timing breakdown:
Section |  min time  |  avg time  |  max time  |%varavg| %total
---------------------------------------------------------------
Pair    | 5.6807     | 5.6807     | 5.6807     |   0.0 | 89.04
Bond    | 0.002992   | 0.002992   | 0.002992   |   0.0 |  0.05
Neigh   | 0          | 0          | 0          |   0.0 |  0.00
Comm    | 0.19714    | 0.19714    | 0.19714    |   0.0 |  3.09
Output  | 0.010674   | 0.010674   | 0.010674   |   0.0 |  0.17
Modify  | 0.45843    | 0.45843    | 0.45843    |   0.0 |  7.19
Other   |            | 0.02974    |            |       |  0.47

Nlocal:             96 ave          96 max          96 min
Histogram: 1 0 0 0 0 0 0 0 0 0
Nghost:            548 ave         548 max         548 min
Histogram: 1 0 0 0 0 0 0 0 0 0
Neighs:              0 ave           0 max           0 min
Histogram: 1 0 0 0 0 0 0 0 0 0
FullNghs:         3124 ave        3124 max        3124 min
Histogram: 1 0 0 0 0 0 0 0 0 0

Total # of neighbors = 3124
Ave neighs/atom = 32.541667
Ave special neighs/atom = 0
Neighbor list builds = 0
Dangerous builds = 0


write_data amorphousSiO.data
System init for write_data ...


Total wall time: 0:01:22
