96
 Atoms. Timestep: 0
2 0 7.95642 4.74695
2 4.63304 0 11.358
2 0 4.63304 4.74695
2 7.95642 0 11.358
2 0 4.63304 8.47514
2 7.95642 0 1.8641
2 0 7.95642 8.47514
2 4.63304 0 1.8641
2 10.7421 8.43088 6.61105
2 4.15858 10.7421 0
2 1.84736 4.15858 6.61105
2 8.43088 1.84736 0
2 1.84736 8.43088 6.61105
2 8.43088 10.7421 0
2 10.7421 4.15858 6.61105
2 4.15858 1.84736 0
2 10.5201 6.29473 5.04003
2 6.29473 10.5201 11.6511
2 2.06934 6.29473 5.04003
2 6.29473 2.06934 11.6511
2 2.06934 6.29473 8.18207
2 6.29473 2.06934 1.57102
2 10.5201 6.29473 8.18207
2 6.29473 10.5201 1.57102
2 10.1594 8.65935 9.20274
2 3.93011 10.1594 2.59169
2 2.43004 3.93011 9.20274
2 8.65935 2.43004 2.59169
2 2.43004 8.65935 9.20274
2 8.65935 10.1594 2.59169
2 10.1594 3.93011 9.20274
2 3.93011 2.43004 2.59169
2 2.43004 3.93011 4.01936
2 8.65935 2.43004 10.6304
2 10.1594 8.65935 4.01936
2 3.93011 10.1594 10.6304
2 10.1594 3.93011 4.01936
2 3.93011 2.43004 10.6304
2 2.43004 8.65935 4.01936
2 8.65935 10.1594 10.6304
2 0 10.703 0
2 1.88643 0 6.61105
2 0 1.88643 0
2 10.703 0 6.61105
2 0 0 1.872
2 0 0 8.48305
2 0 0 11.3501
2 0 0 4.73905
2 11.2706 2.31295 2.18973
2 10.2765 11.2706 8.80078
2 1.31887 10.2765 2.18973
2 2.31295 1.31887 8.80078
2 1.31887 2.31295 2.18973
2 2.31295 11.2706 8.80078
2 11.2706 10.2765 2.18973
2 10.2765 1.31887 8.80078
2 1.31887 10.2765 11.0324
2 2.31295 1.31887 4.42131
2 11.2706 2.31295 11.0324
2 10.2765 11.2706 4.42131
2 11.2706 10.2765 11.0324
2 10.2765 1.31887 4.42131
2 1.31887 2.31295 11.0324
2 2.31295 11.2706 4.42131
1 11.0086 7.83654 8.10972
1 4.75292 11.0086 1.49867
1 1.5809 4.75292 8.10972
1 7.83654 1.5809 1.49867
1 1.5809 7.83654 8.10972
1 7.83654 11.0086 1.49867
1 11.0086 4.75292 8.10972
1 4.75292 1.5809 1.49867
1 1.5809 4.75292 5.11238
1 7.83654 1.5809 11.7234
1 11.0086 7.83654 5.11238
1 4.75292 11.0086 11.7234
1 11.0086 4.75292 5.11238
1 4.75292 1.5809 11.7234
1 1.5809 7.83654 5.11238
1 7.83654 11.0086 11.7234
1 10.1088 10.1088 3.30552
1 2.48067 10.1088 9.91657
1 2.48067 2.48067 3.30552
1 10.1088 2.48067 9.91657
1 2.48067 10.1088 3.30552
1 10.1088 10.1088 9.91657
1 10.1088 2.48067 3.30552
1 2.48067 2.48067 9.91657
1 0 1.60471 1.57853
1 10.9848 0 8.18958
1 0 10.9848 1.57853
1 1.60471 0 8.18958
1 0 10.9848 11.6436
1 1.60471 0 5.03252
1 0 1.60471 11.6436
1 10.9848 0 5.03252
96
 Atoms. Timestep: 2000
2 0.0585839 8.32198 4.01021
2 3.77112 12.4511 11.5223
2 12.8536 4.72751 5.44605
2 7.96242 12.509 11.8562
2 12.9104 4.88743 8.94118
2 8.28318 0.0160088 0.81539
2 0.49027 8.58172 8.26824
2 4.4467 12.4966 1.42737
2 11.5109 8.22584 6.33396
2 4.74952 10.2467 -0.228465
2 1.89623 4.39767 6.94203
2 7.98708 1.76496 13.2302
2 2.16141 8.05027 5.98127
2 8.57583 10.7548 13.1695
2 11.0667 4.93907 6.77943
2 3.84862 0.919271 0.200083
2 10.818 6.48936 4.99409
2 6.27701 10.4313 11.6662
2 2.01606 6.17782 4.68097
2 5.68524 0.879965 12.6071
2 2.29457 6.23822 8.3289
2 6.21249 1.55626 1.05167
2 11.5482 6.46745 9.22964
2 6.66445 10.8075 1.6362
2 11.5544 9.25791 8.96045
2 4.34081 10.2971 2.42956
2 2.04374 4.01674 9.67417
2 9.02382 1.98335 2.40139
2 2.91847 9.24335 8.5028
2 8.84899 10.5273 1.99139
2 10.1388 4.47736 9.79234
2 3.20604 1.5706 2.58619
2 1.0654 3.10658 4.71479
2 8.01726 1.98074 10.8734
2 10.6375 8.78051 3.43571
2 3.69911 10.0241 11.1129
2 10.1855 3.71354 4.28752
2 3.09593 2.27105 11.0891
2 2.43673 8.7149 3.98952
2 9.00921 10.6821 10.5148
2 0.304967 11.852 13.3024
2 0.946952 -0.0303556 6.37244
2 0.308898 1.01302 0.155556
2 10.7643 11.8649 6.94571
2 -0.41303 12.8261 2.01605
2 12.4998 -0.272467 7.88523
2 12.7756 12.9202 11.4787
2 12.5836 11.9129 4.80911
2 11.6004 2.08161 2.79025
2 11.2372 12.228 9.50246
2 1.37324 11.0795 1.847
2 1.23697 1.2727 8.93913
2 0.932803 1.89953 1.9939
2 1.99382 11.9644 8.44897
2 11.5717 10.4633 1.66711
2 10.2676 1.68946 8.89339
2 1.62488 11.1601 10.9682
2 1.78606 0.92599 3.96549
2 10.6502 1.59126 11.9199
2 10.4044 11.5614 3.77197
2 12.1694 10.4672 11.0823
2 10.7011 0.896069 4.99225
2 0.64499 2.04599 11.4651
2 2.09353 11.4982 3.82632
1 11.9466 7.83058 8.12129
1 4.99768 11.0235 1.22415
1 1.50161 4.82501 8.60348
1 7.90247 1.4712 1.10479
1 1.85569 7.95118 7.89808
1 8.21865 11.381 0.8818
1 11.1601 4.87513 8.51951
1 4.64905 1.02919 1.71732
1 1.26272 4.74509 5.39451
1 7.21591 1.04227 11.9697
1 11.5815 8.03512 4.70227
1 4.62773 11.0203 11.9162
1 11.268 5.01117 5.02822
1 3.82783 0.941307 12.3285
1 1.45581 7.74766 4.47042
1 7.72805 10.8931 11.557
1 10.2158 10.1978 2.72275
1 2.58128 10.7342 9.68247
1 1.81189 2.3332 3.25023
1 9.79772 2.52592 10.4937
1 2.83504 10.2987 3.03967
1 10.8597 10.7573 10.1286
1 10.231 2.58661 3.29509
1 1.89403 2.4052 10.1106
1 12.6208 1.52087 1.49472
1 10.805 0.257821 8.13174
1 -0.225366 11.4004 1.26186
1 1.02256 -0.0854407 8.01624
1 0.154008 11.4036 11.8181
1 1.01292 12.7004 4.55646
1 12.6867 1.08916 12.1971
1 11.0703 12.1881 5.24597
96
 Atoms. Timestep: 4000
2 12.8179 7.29367 4.44855
2 4.75207 12.8168 10.5581
2 12.3984 4.51038 5.02349
2 8.30064 0.518497 12.8415
2 12.4679 5.28952 7.86775
2 4.06865 1.3385 -0.0286469
2 12.9525 8.29 7.91214
2 5.36823 12.2832 1.42661
2 11.1216 8.38765 6.47951
2 5.54653 10.7721 12.947
2 1.42122 4.2383 6.5402
2 8.36645 1.97225 1.72589
2 1.13343 7.67848 6.05609
2 8.33361 12.0381 0.864637
2 11.0816 4.38688 6.72732
2 5.26422 1.63614 12.3501
2 10.2385 6.12734 4.49007
2 6.89793 11.9959 11.1773
2 1.70668 5.82732 4.6647
2 5.11292 1.43747 8.92209
2 1.4176 6.68416 8.20157
2 5.85148 2.1993 2.18303
2 10.717 6.74582 8.4327
2 6.27655 9.73212 1.36788
2 10.3256 9.14808 8.82735
2 3.87343 9.91655 1.99092
2 1.62934 4.52298 9.4293
2 8.23722 2.35565 4.21436
2 2.34624 9.36531 8.49526
2 9.51877 10.6139 1.54343
2 11.1506 4.60091 9.62574
2 3.54205 1.65461 2.19422
2 1.44058 3.62901 3.36414
2 9.74374 1.82724 0.207576
2 10.5504 8.76386 4.26408
2 4.55512 10.7685 9.99358
2 9.76105 3.41956 5.60273
2 3.57213 2.51655 10.232
2 1.97505 8.35407 3.40819
2 9.27942 10.791 11.2647
2 0.611757 10.5617 12.972
2 1.19045 -0.342765 6.31384
2 12.3421 1.33116 -0.203964
2 9.12735 0.170839 10.2223
2 0.334232 11.8652 1.76044
2 12.4503 0.584011 8.59365
2 12.0361 0.291782 10.6799
2 11.8603 12.7039 2.80626
2 9.81694 0.718532 5.31372
2 10.2753 11.5415 9.31893
2 1.37841 9.63893 1.79124
2 2.24686 1.80379 8.47649
2 0.864172 1.76303 2.09675
2 2.26697 12.6291 9.17291
2 11.7269 10.2427 2.34768
2 10.9096 1.82118 9.11091
2 1.88698 11.0093 10.4521
2 2.41256 1.07776 4.22446
2 11.8622 2.47145 11.434
2 11.1558 11.2855 4.2682
2 11.8184 9.90166 10.2622
2 12.7184 0.309163 4.56781
2 1.04403 1.86038 11.3048
2 2.06887 11.0194 3.96539
1 11.1969 8.12457 8.09414
1 5.16333 10.6457 1.04433
1 1.38917 5.14022 7.96679
1 7.49004 2.48589 2.92185
1 1.59425 8.15854 7.56562
1 8.12749 10.0255 0.991873
1 10.8579 5.10117 8.1479
1 5.09219 0.963757 1.55945
1 0.906247 4.31934 4.59353
1 8.73133 0.657427 0.81168
1 11.1267 7.43572 4.80755
1 5.3586 11.3838 11.4762
1 10.7446 4.51206 4.91232
1 4.54663 1.37664 10.4691
1 1.41041 7.34916 4.57434
1 8.47782 12.4183 11.5401
1 10.4174 10.0704 3.26256
1 3.13464 11.0454 9.13779
1 2.19208 2.19622 2.95077
1 10.9413 3.06952 10.177
1 2.56355 9.81709 2.84639
1 10.2161 10.2058 10.218
1 8.72453 2.07132 5.67631
1 1.94374 2.71042 10.09
1 -0.379945 0.484755 1.40759
1 11.052 0.0828488 9.36897
1 0.187095 10.4139 1.14676
1 1.21024 0.472708 8.09193
1 0.251119 10.3259 11.2417
1 1.38045 12.6728 4.57948
1 12.8242 1.2243 11.9136
1 10.9083 -0.181608 4.48918
96
 Atoms. Timestep: 6000
2 -0.00176714 7.93437 5.24407
2 5.00606 0.827831 13.1032
2 11.7573 4.35917 4.4955
2 8.35613 1.088 12.9319
2 11.2193 5.61406 8.16185
2 3.5314 0.401221 11.0838
2 12.3791 8.93995 8.30598
2 5.30603 11.9791 1.61131
2 10.7784 8.67409 7.13167
2 5.72594 11.422 12.6968
2 0.43658 5.26658 6.19499
2 9.27864 1.08691 1.46241
2 1.96373 7.79131 6.6247
2 9.65942 11.6118 0.434564
2 8.05472 5.71413 8.53003
2 4.63068 3.09131 9.88385
2 10.6453 6.06398 6.23781
2 5.72157 0.800532 11.2275
2 1.8733 5.66988 4.66425
2 3.65489 0.339884 8.69335
2 1.18122 6.45485 8.16397
2 6.46231 2.09799 2.21909
2 10.0932 7.69291 9.3783
2 7.04869 10.2344 1.37897
2 9.71814 10.3161 9.37653
2 4.60196 9.86883 2.53414
2 0.652296 4.03301 9.0721
2 8.36722 1.54377 4.07391
2 2.33708 8.8923 9.40142
2 9.88073 9.8896 2.11696
2 9.3736 4.81237 10.0788
2 4.2643 2.10494 2.37758
2 1.35099 3.2834 3.53756
2 10.6981 1.21922 12.5879
2 10.6917 8.67336 4.82633
2 4.37026 10.5279 11.3673
2 9.99846 3.05937 5.90339
2 2.01292 1.77702 9.16855
2 2.68901 8.16999 4.18785
2 8.94874 0.344074 10.5872
2 0.901797 9.91873 12.8524
2 2.93334 11.8477 6.34914
2 0.654589 0.739667 0.0561723
2 7.89053 2.69292 10.5642
2 0.81674 11.4252 1.58441
2 1.04539 12.1906 7.99337
2 11.5322 0.533872 10.9171
2 12.2255 0.159477 2.83623
2 11.0527 0.742202 4.90183
2 10.4939 12.4446 8.58963
2 2.54206 9.30994 1.91863
2 11.9028 1.29927 8.27941
2 2.01046 1.21637 1.91609
2 2.53775 10.8072 9.01701
2 12.5803 9.2395 1.83451
2 11.5129 11.7769 6.10466
2 0.820049 10.588 10.4629
2 3.19931 0.638228 3.91179
2 11.2808 2.71687 9.83204
2 11.1961 10.9545 3.91654
2 10.9926 10.6552 10.9978
2 0.660437 12.1064 4.93279
2 0.273176 2.14123 10.721
2 2.16726 10.9568 3.68349
1 10.5438 8.97462 8.68502
1 5.50532 10.7326 0.92272
1 -0.0612447 5.36518 7.62308
1 8.17849 1.77904 2.41928
1 1.51047 8.24978 8.00674
1 8.58868 10.3508 1.28884
1 9.85096 6.13748 8.83433
1 5.23846 1.26019 1.32566
1 0.601735 4.65057 4.23809
1 9.54766 0.436049 0.120963
1 11.3209 7.67827 5.94153
1 4.72744 12.5671 11.8157
1 10.6326 4.55563 5.65645
1 3.44075 1.45541 9.87061
1 1.35329 7.30785 5.0285
1 7.40111 1.41747 11.2721
1 11.2572 9.55769 3.20795
1 2.93879 9.98327 10.3142
1 2.75802 2.13148 3.1902
1 9.7312 3.221 9.88068
1 3.06689 9.5448 3.44464
1 9.97523 12.1347 10.083
1 9.55505 1.46778 5.3788
1 0.13374 2.38732 9.13726
1 0.695735 0.283484 1.45992
1 11.923 12.3523 7.67272
1 1.15612 9.90537 0.977521
1 2.99599 12.0263 7.83804
1 12.6833 10.1507 11.7001
1 2.6738 12.0841 4.77932
1 12.4709 1.44707 12.2868
1 11.8401 12.2107 4.48322
96
 Atoms. Timestep: 8000
2 12.2347 8.52032 5.53817
2 4.71357 -0.18661 12.3674
2 11.6126 3.88949 5.1656
2 9.21414 0.285564 12.6953
2 -0.042976 4.5071 8.55413
2 4.29578 12.7142 10.3749
2 0.49815 8.05682 8.27086
2 4.6189 12.6261 1.14127
2 11.1116 8.56841 7.64895
2 5.15471 10.6446 13.2147
2 0.56672 4.56773 6.18103
2 8.51786 1.8913 1.5874
2 1.70287 7.90644 6.30855
2 9.23533 12.2373 1.2455
2 11.2156 4.36995 7.60928
2 6.20747 0.59604 8.78327
2 9.88307 5.94703 5.94766
2 7.05473 11.7842 11.414
2 0.803484 6.0887 4.26702
2 3.78663 13.0121 8.25937
2 2.02528 6.20717 7.76585
2 5.49447 1.68907 1.18005
2 12.1495 6.86508 9.64805
2 6.55991 10.9038 1.57707
2 12.1798 9.95906 8.85262
2 3.40416 10.6795 2.06043
2 1.78909 3.33324 8.7477
2 6.55284 2.41631 3.44225
2 2.95139 8.83 9.12162
2 8.98451 10.131 2.69594
2 11.5803 4.0579 10.2346
2 0.688014 4.24865 0.217967
2 0.816007 4.47736 3.1619
2 1.17385 11.9409 12.567
2 10.0958 8.95965 5.08217
2 3.80712 10.4416 10.8077
2 8.53989 4.07243 5.02421
2 3.88861 2.15066 10.0138
2 1.25066 8.72547 3.68181
2 9.87096 12.2992 10.2911
2 12.4297 10.5287 -0.442979
2 2.58627 -0.413674 5.85285
2 0.782503 0.913975 0.0973387
2 11.3355 2.31267 12.0445
2 -0.183611 11.8969 1.01541
2 1.00373 0.300398 8.87198
2 10.0787 10.0315 9.81988
2 11.4728 0.576972 1.47104
2 6.58459 3.68443 6.30014
2 11.3889 12.1695 8.05148
2 1.29541 9.65488 1.58239
2 11.3333 1.65072 9.1475
2 0.387829 1.93264 2.31033
2 2.04615 11.2514 8.81121
2 11.6633 10.3046 3.36221
2 12.0728 0.486511 6.71343
2 1.05683 9.91798 10.6126
2 0.857864 -0.0191745 2.91767
2 0.613114 2.80041 11.08
2 10.3092 11.3463 4.44559
2 12.3919 11.1837 10.7602
2 12.6698 12.7857 4.53334
2 2.26016 1.26439 11.5883
2 1.96886 11.1474 3.79188
1 12.1167 8.31711 8.84798
1 4.74796 11.0387 1.35597
1 1.15855 4.58439 7.71538
1 6.81263 2.33942 1.76966
1 1.94278 7.80905 8.04075
1 8.09927 11.3852 1.8597
1 11.7506 5.17829 9.08142
1 4.52598 0.79746 0.172929
1 0.0554576 4.71997 4.78174
1 9.63484 0.629125 0.725818
1 10.7189 7.85727 6.17902
1 5.01401 11.5104 11.6501
1 10.3087 4.16818 5.99488
1 4.7348 0.841186 9.2959
1 0.917291 7.6228 5.01928
1 8.59596 12.4715 11.2836
1 10.0494 9.99887 3.79754
1 2.52645 10.3321 9.95484
1 0.436922 3.58381 1.62314
1 11.9488 2.4669 10.7534
1 2.48193 9.60659 2.8173
1 11.3314 11.3717 9.52926
1 7.20898 3.24775 4.72422
1 2.12796 2.61656 10.4073
1 0.00158191 0.405585 1.42755
1 12.1941 0.597051 8.21012
1 12.6435 10.2713 1.40945
1 2.37006 12.5936 7.70357
1 0.171272 10.7481 11.9883
1 1.51102 12.5098 4.63661
1 2.19063 0.410963 12.9801
1 11.0341 -0.126523 5.31791
96
 Atoms. Timestep: 10000
2 0.769449 8.24856 6.06501
2 5.90446 1.1762 -0.0552833
2 12.6854 4.7328 4.85426
2 9.2467 12.4737 12.0288
2 12.2203 5.57682 7.77785
2 3.15987 11.107 11.7363
2 0.360603 7.8844 9.24595
2 5.63067 11.8178 0.61621
2 11.7283 8.97405 7.25772
2 4.90734 10.1044 12.4292
2 1.15392 4.72627 6.88464
2 8.8185 1.54354 1.30141
2 2.85699 7.83979 7.77176
2 8.17896 11.9715 0.830351
2 9.12252 5.83242 6.8647
2 1.92868 3.66565 8.33978
2 10.9101 6.49206 5.43082
2 6.78867 11.3727 11.7537
2 2.51016 6.44629 5.27475
2 3.23406 1.61209 7.74732
2 1.82864 6.38053 9.52982
2 6.58364 0.756352 2.26496
2 10.6884 6.8469 8.76259
2 6.54101 10.0388 1.56701
2 10.5941 9.41552 9.25882
2 3.75498 9.69579 1.39888
2 0.00622298 4.84144 9.99446
2 8.49496 1.37479 4.4483
2 3.42425 9.23208 9.10171
2 9.062 9.36437 2.09439
2 10.0962 3.88311 8.66708
2 11.239 5.23368 3.31165
2 0.966207 5.50915 3.39587
2 12.5279 11.8248 -0.215809
2 10.6568 9.44922 5.26931
2 5.18989 11.286 9.80891
2 10.4977 3.40849 5.23964
2 1.35482 2.41738 10.1302
2 3.33177 8.64123 4.7872
2 7.37533 10.516 9.56724
2 -0.148514 9.04005 0.565952
2 2.75055 12.9756 5.00611
2 -0.284585 1.59154 0.975277
2 9.80132 0.508339 9.7488
2 12.4507 11.1743 2.33654
2 1.33195 0.439804 7.66376
2 9.80968 11.9343 10.216
2 10.7548 12.2757 1.13638
2 9.46393 2.32626 7.39801
2 12.3841 11.5259 8.71103
2 1.59345 9.12333 2.13179
2 10.9512 0.835893 8.01907
2 0.0868943 4.56669 1.39536
2 3.85351 11.8309 7.35054
2 11.61 8.80516 3.02381
2 12.6291 12.2956 5.96507
2 1.75353 10.5807 11.8454
2 0.692877 0.103883 2.2754
2 11.2216 2.34515 10.0789
2 10.8545 11.0629 3.72179
2 12.4122 10.0568 11.1104
2 0.523056 12.1808 4.06708
2 13.1185 3.7688 12.3084
2 3.11197 10.9513 3.46104
1 11.6407 8.19721 8.87862
1 5.17259 10.2856 0.875845
1 1.005 5.21952 8.60401
1 8.1154 2.05443 2.75018
1 2.10251 8.17152 9.42024
1 8.21766 10.2485 1.0847
1 10.3786 5.31079 7.82451
1 6.77394 -0.0108212 0.805395
1 1.41156 5.30058 5.38092
1 9.40089 0.0638922 0.470746
1 11.4998 7.89508 5.91375
1 4.99122 11.4594 11.3922
1 11.1259 4.89219 4.77102
1 2.30325 2.36238 8.95422
1 2.58261 7.86096 6.04461
1 8.31642 11.1886 10.8112
1 10.167 9.54616 3.42626
1 3.82979 10.8153 8.73725
1 -0.342517 5.59223 2.37862
1 10.1711 2.05088 8.89528
1 2.89117 9.28337 3.32098
1 11.2963 10.9198 9.72659
1 9.32654 2.23124 5.84846
1 12.5965 3.4127 10.6668
1 12.2409 12.6825 1.30861
1 12.5675 -0.077878 7.7491
1 -0.00019356 9.35953 2.16789
1 2.66002 0.262827 6.98477
1 0.201821 10.274 12.6242
1 2.2184 12.4409 3.52638
1 0.116304 3.13282 0.613599
1 11.8057 12.2695 4.53357
96
 Atoms. Timestep: 12000
2 11.4005 9.52694 4.84917
2 4.54877 11.8909 3.77636
2 11.0658 5.66387 4.73622
2 10.0929 1.00752 1.00403
2 11.9595 5.20561 8.29814
2 2.4128 0.0890885 12.0973
2 12.2584 9.0131 8.02759
2 5.214 12.1378 1.53911
2 10.0535 8.52297 7.07715
2 4.97242 0.299322 10.1961
2 0.761064 4.93728 6.2197
2 10.0918 0.834469 3.73669
2 2.10064 7.76739 6.22046
2 6.72597 10.9281 2.67966
2 10.7033 6.0698 6.65785
2 1.34295 3.11246 6.9999
2 9.07639 7.0125 5.23111
2 4.95161 11.3709 12.0653
2 1.35099 6.22555 4.32535
2 3.80327 1.65103 7.51663
2 1.55946 6.29147 8.29193
2 7.09452 0.329829 3.8651
2 10.5728 7.34663 8.92166
2 6.21845 9.71737 0.812469
2 9.95618 10.546 9.61251
2 4.27022 8.92553 0.769805
2 1.00046 4.10712 9.47074
2 8.23752 1.82754 6.44225
2 2.27173 9.27731 8.74181
2 9.18127 9.50729 1.16133
2 9.39478 4.58424 8.36973
2 9.36378 4.52531 3.76111
2 12.0329 4.69445 3.149
2 0.888053 11.6247 0.636126
2 9.77915 8.87314 3.41936
2 2.64608 12.1837 9.98533
2 9.0362 4.16383 6.18255
2 2.1142 1.59645 9.46163
2 3.25783 7.11134 3.17054
2 9.72791 12.817 11.5876
2 1.18078 9.51542 12.4393
2 5.70184 11.7498 6.90338
2 0.829313 2.2113 1.19793
2 10.9098 0.534816 9.21247
2 3.72279 10.8136 1.92019
2 2.10312 12.6622 6.90869
2 7.8519 11.8644 0.287855
2 12.2968 0.830637 2.39862
2 10.2916 2.72041 7.7347
2 0.83039 11.3365 7.91352
2 2.36784 8.44043 1.09152
2 0.462521 1.34348 7.57887
2 11.3127 3.70117 1.18038
2 3.37738 11.833 8.05626
2 12.0008 8.19745 1.65291
2 0.492695 12.1853 5.2721
2 0.638032 11.6759 10.3245
2 2.49539 12.4625 2.64464
2 12.6651 1.92917 10.117
2 11.7196 10.1377 2.94758
2 11.8013 11.78 11.8559
2 1.30789 10.4127 4.29017
2 0.770596 3.11656 12.2299
2 3.44932 9.46352 3.389
1 10.5284 9.06331 8.78164
1 4.87491 10.6757 0.549294
1 0.797291 4.53597 7.86699
1 8.58807 0.991251 4.66181
1 1.48891 7.97384 8.29476
1 7.62921 10.1828 1.47107
1 10.5191 5.78398 8.15701
1 5.91892 12.317 3.00221
1 0.201145 5.18575 4.68264
1 10.7206 1.36181 2.602
1 9.73231 8.58372 5.09635
1 3.84948 12.4125 11.1371
1 9.59193 5.44919 5.47896
1 2.15387 1.77584 7.73744
1 2.66685 7.00604 4.77214
1 9.09804 0.0470037 13.0361
1 10.7778 9.03292 2.07523
1 2.13337 11.0646 8.76773
1 10.5582 4.35255 2.48036
1 11.6223 1.92295 8.67619
1 3.54818 8.4695 2.12888
1 10.5962 11.9185 10.312
1 8.70831 3.1867 7.60891
1 1.52679 2.59388 10.5059
1 1.01219 0.341271 1.48752
1 0.438295 12.4505 6.79258
1 0.724686 8.29102 0.763415
1 4.92585 0.325223 7.8046
1 1.05402 11.4356 12.0324
1 2.96293 10.7947 3.38022
1 12.5578 2.98193 0.315857
1 12.3469 10.9298 4.26728
96
 Atoms. Timestep: 14000
2 11.7046 9.70905 4.65457
2 4.18442 0.494915 4.11288
2 11.5299 5.83115 3.41552
2 9.50044 0.599277 0.523724
2 11.7782 4.47871 9.48075
2 1.62101 11.6841 11.8701
2 0.697476 8.05185 8.43579
2 6.90423 0.254348 7.79144
2 10.4762 8.81726 6.96279
2 4.64885 0.190147 11.2471
2 2.30693 3.48017 7.36516
2 9.33118 1.40386 3.1606
2 2.55683 6.62381 6.28166
2 6.76529 0.159006 2.34732
2 12.3235 4.43882 7.48265
2 4.65512 4.91765 7.8856
2 9.80791 7.40926 4.25958
2 3.34368 10.615 12.7794
2 1.68745 4.58333 4.99734
2 5.56901 2.48351 7.61118
2 2.48257 5.89821 8.64082
2 6.71222 1.73057 4.10863
2 11.1662 7.23146 9.04567
2 5.45826 10.422 1.72454
2 10.6073 10.1498 9.18221
2 2.69786 9.01577 1.31757
2 1.7187 3.66916 9.29695
2 8.80857 2.57675 5.79697
2 3.08461 8.75894 8.47339
2 8.28646 10.8791 2.5696
2 9.64368 4.69321 8.18909
2 9.78129 5.1514 2.3176
2 10.9302 6.26664 0.57045
2 12.2685 11.2652 0.337718
2 9.55138 9.44249 4.25661
2 3.20099 10.4051 10.0085
2 9.29017 5.40341 5.43806
2 12.3341 3.60124 0.310318
2 2.30698 6.50624 3.3966
2 9.04375 11.598 11.0843
2 11.7615 8.88528 12.7742
2 5.85143 0.952323 10.298
2 0.0880148 1.15512 0.124293
2 10.9868 12.2115 8.85409
2 3.25081 11.6343 1.94031
2 7.53095 4.53093 6.34178
2 7.28662 11.7651 0.248032
2 11.5942 0.452016 2.15813
2 10.9034 2.99283 6.61066
2 1.80158 11.5144 7.76799
2 12.5497 7.65593 1.92917
2 11.8199 12.2556 6.97879
2 10.0181 3.1326 1.66284
2 4.31038 12.3385 8.53299
2 10.3924 8.87961 1.86549
2 0.682899 10.4872 5.86078
2 0.606189 9.41931 10.4752
2 1.43741 0.78617 2.34618
2 12.3562 2.49078 8.22912
2 11.2846 10.5541 2.75652
2 11.2513 10.338 11.0887
2 1.99896 11.1644 3.54832
2 0.450092 2.75409 11.189
2 1.40774 9.11523 3.72208
1 11.5619 8.97943 8.39452
1 3.62476 10.3248 1.21953
1 3.1567 4.25481 8.44918
1 8.37276 1.64123 4.55492
1 2.21585 7.39639 7.99561
1 6.97716 11.0453 1.85749
1 11.1197 5.45292 8.32038
1 5.52211 1.22881 3.18825
1 1.03499 3.79538 6.32763
1 10.2363 1.40732 1.75274
1 10.4514 8.34025 5.22986
1 3.21063 11.2983 11.3223
1 9.71121 5.87963 3.99049
1 6.04146 4.10098 7.02896
1 2.71073 5.7216 4.75296
1 8.64369 12.2254 12.4146
1 9.53162 10.048 2.6862
1 3.22177 10.6582 8.33413
1 10.9143 4.70528 1.15118
1 11.4665 1.41368 7.60036
1 1.80961 7.94497 2.34086
1 10.3321 11.374 10.2773
1 9.07844 4.05573 6.49453
1 0.357041 3.2587 9.62654
1 0.5411 12.5099 1.31912
1 0.282034 10.8563 7.39824
1 11.3155 7.75142 1.03588
1 5.58721 0.943843 8.70564
1 0.205867 10.4564 11.7902
1 2.67974 0.213196 3.23129
1 12.5007 2.42995 12.6079
1 0.456202 10.4802 4.00344
96
 Atoms. Timestep: 16000
2 12.1781 9.05498 4.60858
2 3.76843 12.5402 3.63897
2 12.037 3.97887 5.53433
2 8.8568 1.44923 12.6816
2 11.2407 4.39895 8.84363
2 0.984217 11.6824 11.7385
2 0.543037 8.4607 8.77143
2 6.93926 12.3363 11.0288
2 10.7736 7.05114 6.77537
2 3.03047 0.453741 10.6337
2 2.42478 3.93077 7.57725
2 9.07249 2.76935 2.069
2 1.5955 8.07307 6.56954
2 5.97403 11.6962 3.3468
2 12.0764 5.50605 7.30602
2 4.99324 4.31493 8.80758
2 11.4815 6.39834 4.50495
2 3.17381 10.7573 0.0608744
2 1.61427 5.34208 5.70151
2 5.86344 1.92905 8.9694
2 3.29355 6.57124 8.67588
2 6.38303 1.30635 3.48342
2 10.5241 6.86554 9.16537
2 5.3303 10.5204 1.22038
2 10.698 9.82473 9.03271
2 3.06015 8.57835 1.48531
2 1.78489 4.90931 9.18515
2 8.31564 2.08248 4.91474
2 3.68374 8.92174 8.14963
2 8.40477 10.1175 2.24306
2 9.16887 4.60969 7.43326
2 11.7921 4.7164 2.4572
2 11.4258 6.27003 0.541944
2 12.4319 11.2824 0.463194
2 9.85228 8.77552 4.4472
2 2.82605 10.7 10.2524
2 9.90666 3.83624 4.9397
2 0.224807 4.31593 12.3314
2 2.11982 6.81351 3.76641
2 9.06081 11.9483 10.827
2 11.5917 9.00333 0.357059
2 4.23799 0.781899 9.77379
2 0.085592 1.68046 12.9873
2 10.5594 0.502848 8.80212
2 3.25776 11.4086 1.94083
2 7.31914 3.09299 6.96109
2 7.70063 11.7407 0.61834
2 11.0519 1.25516 1.58787
2 9.97131 1.76943 6.99994
2 2.51796 11.5241 7.68475
2 0.800518 7.7071 1.32654
2 0.154821 0.685747 6.88926
2 10.8584 3.19162 0.0987765
2 5.01345 11.0487 8.85611
2 10.3923 8.54518 2.25206
2 1.7282 10.9368 5.2356
2 12.1876 8.94769 11.1062
2 0.981103 0.865091 1.98291
2 12.5147 3.2476 7.77712
2 11.6884 10.6984 3.27201
2 11.4164 11.1877 11.02
2 1.04644 12.0576 3.61552
2 0.885519 2.83885 10.3082
2 0.852717 9.2889 2.50876
1 11.4354 8.17961 9.56109
1 3.78867 9.98255 1.36701
1 3.50985 4.86091 8.30414
1 7.92036 2.41301 3.14654
1 2.02333 8.04812 8.26108
1 6.83749 11.0651 1.89618
1 10.3545 5.82415 7.80434
1 5.28098 0.383184 3.92211
1 0.823371 4.31661 6.53501
1 9.82786 2.16832 0.66522
1 11.1416 7.83511 5.221
1 2.52963 11.4624 11.7145
1 11.1786 4.89095 4.33646
1 6.0934 3.33471 7.98342
1 1.18307 6.98048 5.28624
1 8.30379 12.2237 12.1941
1 9.89414 9.93634 3.17856
1 3.51429 10.5408 8.72691
1 11.4577 4.76493 0.740154
1 11.5328 1.67813 7.74296
1 1.83619 7.99659 2.41842
1 10.3229 11.642 9.88247
1 9.02231 3.13491 6.40671
1 0.366627 3.94753 9.23596
1 12.4394 0.406064 0.765138
1 1.13178 11.745 6.82158
1 11.6964 7.59979 1.21402
1 5.75913 0.0837267 9.37957
1 12.1815 10.1305 12.3915
1 2.37457 12.3332 2.74203
1 0.85794 2.85416 12.1268
1 0.606295 10.4997 3.89044
96
 Atoms. Timestep: 18000
2 12.3042 7.34954 5.17854
2 5.8238 11.7813 3.98508
2 11.978 2.94773 6.73096
2 7.26766 0.784433 0.122784
2 11.9391 5.29824 9.50823
2 1.72729 10.9413 12.6642
2 1.23813 9.21386 7.93558
2 4.23178 12.208 9.1939
2 10.6126 7.08291 6.89901
2 4.37244 11.7628 12.5671
2 2.94231 4.43637 7.85897
2 7.37363 3.15863 2.13235
2 1.66931 7.40095 6.54716
2 7.90592 11.4463 2.65366
2 12.3824 6.02558 7.11702
2 5.0857 5.37397 9.54601
2 9.49198 5.68081 4.32988
2 4.36377 10.1403 1.78992
2 2.13649 5.20907 5.87992
2 7.38553 5.36797 11.0567
2 3.36191 6.89367 8.25892
2 7.51041 1.85796 3.87456
2 10.9237 7.7579 9.33842
2 6.63242 8.77793 2.29871
2 10.7566 10.6 9.36046
2 3.8102 7.37438 2.04027
2 2.30509 5.00942 10.6992
2 5.59117 4.18721 4.30914
2 3.12663 9.84806 7.29584
2 9.26649 8.9333 1.85734
2 9.83503 5.33548 7.90298
2 10.4132 4.26329 2.09264
2 11.1524 5.45501 12.5731
2 11.4331 10.9989 0.644942
2 10.2092 7.83947 3.72323
2 3.65802 12.3884 7.92498
2 7.78069 4.05504 5.57473
2 10.6465 2.6951 12.6318
2 2.50924 7.11279 4.06591
2 9.22569 12.2347 10.8612
2 0.331962 8.19923 12.3439
2 6.46931 11.8173 10.8513
2 0.36676 0.937813 12.7021
2 9.93726 0.95335 8.41546
2 4.47601 9.50692 3.65572
2 7.08339 4.73917 8.38479
2 8.12557 10.6247 12.7858
2 9.62182 1.05085 1.45351
2 8.89786 3.11567 7.17455
2 1.14471 11.9277 6.50824
2 1.26793 6.90388 1.36987
2 10.9297 1.25016 6.08905
2 8.73254 3.49206 0.694087
2 3.68389 11.4711 5.1081
2 10.9364 7.2743 1.45198
2 11.8578 11.6398 4.32594
2 0.459462 9.98844 10.5954
2 3.01499 12.2355 1.86627
2 1.00339 4.11158 8.39867
2 11.8712 9.52681 2.38824
2 11.5048 0.973105 10.219
2 0.419001 11.916 2.47786
2 0.725122 3.09923 11.0026
2 1.71893 9.55143 3.08049
1 11.9158 9.1945 9.25727
1 5.01113 8.34977 2.2762
1 3.37098 5.63578 9.10751
1 7.20031 3.35443 4.03206
1 2.64689 8.18061 7.28458
1 8.01089 9.8403 1.72543
1 11.21 6.27368 8.28081
1 7.24723 0.211306 3.56232
1 1.2181 4.23688 6.84345
1 8.21085 1.92346 0.984098
1 10.6695 7.05364 5.28894
1 3.29563 10.9982 0.708422
1 9.32618 4.46939 3.31869
1 6.66724 5.73643 9.58782
1 1.51534 6.51412 5.13888
1 7.72963 11.7719 11.8098
1 10.6279 8.57765 2.33703
1 2.81796 11.3353 6.63856
1 10.316 4.2455 0.243506
1 10.2668 2.14149 7.24851
1 2.23304 7.94437 2.39679
1 10.4418 12.1328 9.77772
1 8.46046 4.48456 7.05081
1 1.12565 4.18317 9.99186
1 11.631 0.446937 1.37189
1 12.2804 0.549667 5.45712
1 12.2912 6.91001 0.422166
1 4.69383 12.0131 10.8369
1 0.340798 10.1895 12.1448
1 4.34858 11.1805 3.56462
1 11.8952 1.83667 11.5815
1 0.403681 10.5258 3.43833
96
 Atoms. Timestep: 20000
2 11.1247 7.12983 5.41267
2 5.10871 0.68428 3.91322
2 0.17663 2.38228 5.89937
2 8.54564 1.64325 12.5369
2 11.8969 4.57656 8.59824
2 1.537 10.7121 13.2844
2 1.71019 8.25518 8.74125
2 5.57613 11.9398 9.05011
2 10.0183 6.87829 7.62536
2 3.43818 1.01295 12.8888
2 2.82462 4.09021 6.01693
2 8.73935 2.68466 3.1438
2 1.79488 7.65166 6.51814
2 7.76971 11.7982 2.20176
2 12.3649 5.99621 6.88651
2 5.10584 4.16547 8.40017
2 9.73751 5.68488 4.86988
2 2.76842 0.518439 2.26388
2 0.145485 4.5265 4.72448
2 5.97276 2.20291 10.4386
2 3.64309 6.18977 7.78815
2 7.35959 1.7063 4.34067
2 11.542 7.32921 9.07393
2 6.04832 9.45554 1.26011
2 10.976 10.2648 9.47389
2 3.35976 8.57443 2.10522
2 2.54916 3.67464 8.56535
2 7.48609 4.89935 3.4671
2 3.77667 9.15098 7.04123
2 8.29648 8.99688 2.79592
2 9.81154 4.83382 8.25568
2 10.7443 4.64012 2.71325
2 11.0711 6.03818 1.12529
2 11.4369 10.9743 12.7446
2 9.08465 7.92301 4.68585
2 5.08753 11.5749 7.62438
2 8.55016 3.72999 5.75726
2 11.7437 3.47963 12.7004
2 1.87412 7.55634 4.27418
2 8.79933 0.336578 9.93616
2 12.0409 8.91511 12.6866
2 6.26719 0.874277 12.2525
2 0.58685 0.550458 0.537859
2 10.413 0.617895 7.98148
2 4.01821 11.2483 2.15839
2 7.7188 2.90119 8.65785
2 8.07063 11.6555 12.9816
2 9.62242 1.00043 1.4234
2 10.13 3.0377 7.02003
2 2.1979 11.1801 6.69551
2 0.964459 7.24086 1.53483
2 11.9376 0.577064 6.61406
2 9.24421 3.71027 0.820108
2 3.33731 11.4002 5.10212
2 10.9024 8.27535 2.15857
2 0.956117 11.2477 4.8623
2 0.638508 9.39678 10.5453
2 4.89886 3.58259 11.7783
2 12.5285 2.39078 8.09026
2 11.0391 9.9074 4.00977
2 11.1747 0.552449 10.8367
2 11.6736 11.7342 2.4698
2 0.466493 2.62932 10.6391
2 0.546061 9.32884 2.8421
1 12.315 8.78554 8.92138
1 4.54482 9.8383 1.57489
1 3.8842 4.54231 7.51832
1 7.75861 3.58838 4.41753
1 2.90162 7.81266 7.60801
1 7.64592 10.2352 1.51561
1 11.1887 5.97044 8.25154
1 6.65447 0.586648 3.23443
1 1.32248 3.88202 5.70436
1 8.8028 2.33341 1.44474
1 9.53909 6.86882 5.97377
1 2.17627 0.333719 0.681094
1 10.8407 4.45393 4.13663
1 6.19833 3.02701 9.15257
1 0.618672 6.83397 5.40313
1 8.0604 0.272313 11.5999
1 9.91234 8.55754 3.40714
1 3.72509 10.742 6.65698
1 10.7973 4.55251 0.823073
1 11.3013 1.9467 7.02526
1 1.94166 8.17939 2.87149
1 10.4721 12.152 9.39314
1 8.7292 3.80539 7.59528
1 0.907177 3.51811 8.95413
1 11.0779 12.1182 1.09468
1 0.640314 11.5467 6.4195
1 11.6061 7.54663 0.819907
1 4.86162 1.90064 12.0149
1 0.510478 10.1949 12.0401
1 3.55285 11.9692 3.5353
1 11.8357 1.82448 12.0155
1 12.3165 10.6692 3.57268
96
 Atoms. Timestep: 22000
2 11.8486 7.85449 5.66483
2 3.88389 1.143 3.80722
2 4.86059 4.65286 3.50478
2 8.2714 0.46173 0.592744
2 12.4455 5.17477 8.8932
2 2.27941 10.0566 12.4999
2 1.44746 8.79842 8.96422
2 5.37205 10.8476 5.14959
2 10.2025 6.60622 6.65338
2 4.11997 11.8193 11.3073
2 2.94566 4.95437 6.38449
2 8.36075 1.38017 3.75397
2 2.14129 7.83322 6.74506
2 6.24824 11.3563 3.27339
2 0.160148 5.8169 7.00397
2 4.96884 3.93063 7.66863
2 11.2425 6.17103 4.17226
2 2.34669 12.0697 1.48987
2 1.43809 4.2874 4.12537
2 5.4055 2.59044 9.9937
2 3.68077 7.06139 8.31632
2 6.20399 1.07252 5.21811
2 11.1534 7.27071 9.29287
2 5.2056 10.1661 1.7478
2 11.0593 10.3429 9.11647
2 3.47389 8.58406 3.07268
2 2.30541 4.16746 8.50034
2 6.67434 3.23632 4.48394
2 3.72446 10.0898 7.95485
2 8.21134 10.4418 2.66605
2 9.59086 4.91876 7.64989
2 10.7715 4.31265 2.98936
2 10.4871 5.97634 1.00903
2 11.689 10.7379 0.636488
2 9.42141 8.66697 4.42966
2 4.25525 1.01104 8.70906
2 8.34218 2.21074 6.09822
2 10.8573 3.37694 12.912
2 1.75403 6.19723 4.3189
2 9.29361 11.368 10.7453
2 12.1183 8.23738 0.401628
2 6.70031 0.48176 10.8823
2 0.308447 0.799589 12.5837
2 10.6915 1.24345 7.86839
2 3.38307 11.3147 3.07909
2 7.49937 3.00569 8.50826
2 7.43336 10.5832 12.8191
2 10.2961 0.583985 2.22061
2 10.2453 3.10145 6.37687
2 2.7124 12.4905 6.72756
2 0.361596 7.60387 2.57551
2 0.147483 1.11925 6.4298
2 9.58987 2.88271 1.71613
2 2.04391 0.863427 4.50617
2 10.146 8.53712 1.6431
2 0.805583 10.631 4.99889
2 0.220475 8.72625 10.9066
2 4.0086 1.80459 11.8325
2 11.8955 3.26405 8.46218
2 10.8358 10.0636 2.81394
2 10.9963 0.964278 10.6797
2 0.894467 12.1084 2.89203
2 1.01821 2.75107 10.7547
2 1.46229 9.11448 3.31017
1 11.9738 8.97786 9.27098
1 3.81973 9.88874 2.48258
1 3.75125 5.09764 7.88683
1 7.48367 2.00605 4.80954
1 2.73259 8.58412 8.00156
1 6.84775 10.7293 1.80987
1 10.9795 5.84797 8.19236
1 5.07592 12.284 4.45949
1 3.29979 5.16112 4.5056
1 8.82094 1.2214 2.05393
1 10.3084 7.49242 5.05196
1 3.1449 11.3863 12.752
1 11.7374 4.66625 3.99086
1 5.98143 3.30515 8.66224
1 1.17068 6.88165 5.96697
1 7.98599 11.7246 11.5884
1 9.36191 9.4444 3.01517
1 3.56201 11.7716 7.91316
1 9.93115 4.42733 1.55067
1 11.514 2.42888 7.16649
1 2.0599 7.63574 3.14984
1 10.5222 11.9365 9.43378
1 8.72251 3.2077 7.12632
1 1.12815 3.67056 9.36738
1 11.7804 0.128876 1.45818
1 1.4603 11.9383 5.80008
1 11.27 7.28754 1.54306
1 4.93292 1.09616 10.5774
1 0.726492 9.63551 12.1002