96
 Atoms. Timestep: 0
2 0 7.95642 4.74695
2 4.63304 0 11.358
2 0 4.63304 4.74695
2 7.95642 0 11.358
2 0 4.63304 8.47514
2 7.95642 0 1.8641
2 0 7.95642 8.47514
2 4.63304 0 1.8641
2 10.7421 8.43088 6.61105
2 4.15858 10.7421 0
2 1.84736 4.15858 6.61105
2 8.43088 1.84736 0
2 1.84736 8.43088 6.61105
2 8.43088 10.7421 0
2 10.7421 4.15858 6.61105
2 4.15858 1.84736 0
2 10.5201 6.29473 5.04003
2 6.29473 10.5201 11.6511
2 2.06934 6.29473 5.04003
2 6.29473 2.06934 11.6511
2 2.06934 6.29473 8.18207
2 6.29473 2.06934 1.57102
2 10.5201 6.29473 8.18207
2 6.29473 10.5201 1.57102
2 10.1594 8.65935 9.20274
2 3.93011 10.1594 2.59169
2 2.43004 3.93011 9.20274
2 8.65935 2.43004 2.59169
2 2.43004 8.65935 9.20274
2 8.65935 10.1594 2.59169
2 10.1594 3.93011 9.20274
2 3.93011 2.43004 2.59169
2 2.43004 3.93011 4.01936
2 8.65935 2.43004 10.6304
2 10.1594 8.65935 4.01936
2 3.93011 10.1594 10.6304
2 10.1594 3.93011 4.01936
2 3.93011 2.43004 10.6304
2 2.43004 8.65935 4.01936
2 8.65935 10.1594 10.6304
2 0 10.703 0
2 1.88643 0 6.61105
2 0 1.88643 0
2 10.703 0 6.61105
2 0 0 1.872
2 0 0 8.48305
2 0 0 11.3501
2 0 0 4.73905
2 11.2706 2.31295 2.18973
2 10.2765 11.2706 8.80078
2 1.31887 10.2765 2.18973
2 2.31295 1.31887 8.80078
2 1.31887 2.31295 2.18973
2 2.31295 11.2706 8.80078
2 11.2706 10.2765 2.18973
2 10.2765 1.31887 8.80078
2 1.31887 10.2765 11.0324
2 2.31295 1.31887 4.42131
2 11.2706 2.31295 11.0324
2 10.2765 11.2706 4.42131
2 11.2706 10.2765 11.0324
2 10.2765 1.31887 4.42131
2 1.31887 2.31295 11.0324
2 2.31295 11.2706 4.42131
1 11.0086 7.83654 8.10972
1 4.75292 11.0086 1.49867
1 1.5809 4.75292 8.10972
1 7.83654 1.5809 1.49867
1 1.5809 7.83654 8.10972
1 7.83654 11.0086 1.49867
1 11.0086 4.75292 8.10972
1 4.75292 1.5809 1.49867
1 1.5809 4.75292 5.11238
1 7.83654 1.5809 11.7234
1 11.0086 7.83654 5.11238
1 4.75292 11.0086 11.7234
1 11.0086 4.75292 5.11238
1 4.75292 1.5809 11.7234
1 1.5809 7.83654 5.11238
1 7.83654 11.0086 11.7234
1 10.1088 10.1088 3.30552
1 2.48067 10.1088 9.91657
1 2.48067 2.48067 3.30552
1 10.1088 2.48067 9.91657
1 2.48067 10.1088 3.30552
1 10.1088 10.1088 9.91657
1 10.1088 2.48067 3.30552
1 2.48067 2.48067 9.91657
1 0 1.60471 1.57853
1 10.9848 0 8.18958
1 0 10.9848 1.57853
1 1.60471 0 8.18958
1 0 10.9848 11.6436
1 1.60471 0 5.03252
1 0 1.60471 11.6436
1 10.9848 0 5.03252
96
 Atoms. Timestep: 2000
2 12.4357 9.04158 5.02963
2 4.92786 12.5993 11.2331
2 12.2594 5.18017 4.46189
2 7.90598 12.7168 12.0865
2 -0.116426 4.49627 7.93221
2 7.44625 12.4108 2.1987
2 12.6997 8.38349 8.00791
2 4.22288 12.2328 1.56151
2 10.1815 7.06897 6.96388
2 5.60833 11.1677 0.0454242
2 1.36825 4.39012 6.38334
2 8.0755 1.38344 0.269895
2 1.78086 8.18199 6.54764
2 8.23873 10.9649 0.437708
2 11.5204 4.23623 6.60173
2 3.61793 1.23968 13.752
2 10.2427 5.66736 4.63034
2 7.02263 10.5751 11.7958
2 0.837962 6.78585 4.8193
2 6.19779 0.968538 11.7191
2 1.47897 6.19686 8.45376
2 6.17359 1.37837 1.18109
2 11.3915 6.72698 8.73861
2 6.76705 10.5206 2.11737
2 10.5224 9.21189 9.24857
2 3.55414 10.3166 2.28948
2 2.20554 3.29532 8.6249
2 8.52592 1.70805 2.67398
2 2.15065 8.60993 9.14704
2 9.07498 9.94308 3.46539
2 10.8755 3.87353 8.9447
2 3.55992 2.21189 2.40269
2 1.70751 4.06406 4.00324
2 8.85857 2.02523 11.1133
2 10.0366 8.2352 4.31295
2 4.31799 10.1393 10.6743
2 10.3323 3.10971 4.0249
2 3.99995 2.15735 10.9619
2 1.64903 8.96093 3.59238
2 9.00598 11.2634 10.833
2 -0.0282062 11.0472 13.4217
2 1.79115 12.8805 6.25187
2 0.300044 1.56616 12.8568
2 10.5502 0.577703 6.68626
2 12.5278 0.0246034 0.77445
2 -0.209951 0.403698 7.84016
2 0.0441035 -0.140329 11.0486
2 12.8702 0.337952 5.0686
2 11.326 1.21668 1.93733
2 10.5416 11.7747 8.75169
2 1.21209 11.4468 1.92587
2 2.66979 1.05782 8.66511
2 0.658481 2.60488 2.08509
2 2.19101 11.5284 8.65816
2 11.6513 10.4972 2.67133
2 10.1684 1.20299 8.93301
2 1.8078 11.0537 11.4343
2 2.06887 1.58553 4.29125
2 11.9275 2.59058 10.796
2 11.151 11.3572 4.78053
2 11.8186 10.5372 10.6833
2 10.0037 0.375829 3.87421
2 1.23974 2.16006 10.8374
2 2.38473 11.7118 4.18217
1 11.1535 8.22148 8.03539
1 5.17302 10.8665 1.62372
1 1.36458 4.71333 8.02585
1 7.55484 0.871459 1.68234
1 1.24475 8.03018 8.03936
1 8.45057 10.6995 2.02622
1 11.5002 5.11191 8.02383
1 4.2579 1.05242 1.54488
1 0.910113 5.14135 5.03597
1 7.76767 1.34846 12.1634
1 9.90384 6.90385 5.36089
1 5.35784 10.942 11.8845
1 11.072 4.24752 4.94834
1 4.25909 1.04025 12.1636
1 1.02226 8.26418 4.86116
1 8.4174 11.2962 12.3827
1 10.778 9.8207 4.18407
1 2.77412 10.4639 10.1381
1 2.04488 2.52328 3.10768
1 10.3005 2.40443 10.0182
1 2.20266 10.4081 3.33151
1 10.2838 10.8753 9.94615
1 10.2019 2.01266 2.88654
1 2.65591 2.24303 9.76554
1 12.707 1.53264 1.01836
1 11.1533 0.0424139 8.26004
1 12.7209 11.5468 1.31273
1 1.50178 0.0753035 7.81044
1 -0.000704904 11.2674 11.5382
1 1.32838 -0.138761 4.86369
1 -0.0836384 1.53112 11.3483
1 11.1882 -0.084041 5.00279
96
 Atoms. Timestep: 4000
2 12.473 8.28983 4.20389
2 4.0176 0.0880312 11.4408
2 12.4079 4.53467 4.83966
2 8.70372 12.6449 12.1024
2 0.0427343 4.5975 8.67902
2 8.16417 0.309894 1.06269
2 0.247219 7.67999 8.85199
2 5.54054 0.278503 1.9231
2 11.7809 7.69897 6.82234
2 4.64539 11.5208 0.267836
2 1.42569 4.72776 6.15286
2 7.77827 2.06964 13.6304
2 1.1406 8.47878 6.16446
2 8.69099 11.1669 -0.312653
2 10.8543 4.63564 7.30789
2 4.43066 1.97378 13.516
2 10.5471 6.14917 4.59399
2 6.42721 11.2529 11.1803
2 0.780939 6.64674 3.7246
2 6.26913 1.59697 11.6054
2 2.50293 6.45325 7.49444
2 6.05267 2.63057 1.34117
2 11.7969 6.22892 9.15793
2 7.12493 11.1698 2.16511
2 11.0381 8.3203 9.74457
2 3.9447 11.5763 2.68539
2 2.26013 3.68773 9.11639
2 9.07843 2.09083 2.3614
2 1.84541 8.96566 8.99156
2 9.49557 11.6764 2.40057
2 11.1311 3.23947 9.56318
2 2.78314 1.23246 1.60812
2 1.38955 3.62551 3.21259
2 9.34376 2.31439 11.5467
2 10.2517 9.08619 4.54495
2 3.762 10.5808 10.7544
2 9.69248 3.27325 4.30009
2 2.76957 2.27808 11.7574
2 1.4525 9.09402 2.78143
2 9.1308 10.8599 11.3375
2 0.446119 10.2248 -0.446685
2 1.35501 -0.050737 6.61727
2 12.9645 1.29825 -0.0103148
2 10.7555 -0.382106 7.01527
2 12.4005 12.0953 0.924761
2 12.8791 0.339566 7.85975
2 0.154324 12.1008 11.82
2 12.7095 12.53 4.5903
2 11.2131 1.24337 2.16819
2 11.0662 11.713 9.63426
2 1.47804 10.9399 1.48874
2 1.68545 1.63003 8.85
2 0.160859 0.899683 2.60005
2 1.84181 11.6587 8.52509
2 12.2616 10.8298 2.74872
2 10.6969 1.04547 9.22453
2 0.41651 10.5974 10.4994
2 1.22245 0.864899 4.28616
2 11.8654 1.58071 11.3521
2 10.4202 11.6254 4.67089
2 11.3144 10.2971 11.5716
2 10.4082 0.576544 4.29051
2 1.06535 1.30732 11.377
2 1.81685 11.4165 4.30079
1 11.9971 7.6864 8.6188
1 5.47072 11.7336 1.76802
1 1.72636 4.77525 7.8384
1 7.65446 1.91198 1.15614
1 1.52837 8.08292 7.80986
1 8.42824 12.0877 1.2755
1 11.706 4.39748 8.68808
1 4.53953 1.64742 1.0578
1 0.933277 4.90783 4.31087
1 7.98497 1.292 12.1704
1 11.1287 7.8055 5.05449
1 4.84235 11.7826 10.5383
1 10.7849 4.37362 5.34407
1 4.3572 1.60839 11.9138
1 0.918263 8.19178 4.41011
1 7.77141 11.2282 12.346
1 10.571 10.4619 3.53212
1 2.21401 10.3987 9.85784
1 1.6058 1.76201 2.80924
1 10.4918 2.04763 10.6293
1 2.45712 10.9419 2.69501
1 10.4743 9.88301 10.1305
1 10.3315 1.86959 3.29846
1 1.74655 2.24659 10.1813
1 12.3523 0.327534 1.09701
1 11.4762 -0.28731 8.35263
1 -0.178823 10.4826 1.2991
1 1.2566 0.101223 8.02702
1 -0.188309 10.5247 11.903
1 0.954456 12.7422 4.95919
1 -0.0750929 0.548026 12.3054
1 11.0652 -0.327733 5.34818
96
 Atoms. Timestep: 6000
2 12.5436 8.03323 4.21425
2 4.45535 12.3853 12.4677
2 0.577257 3.50846 5.32776
2 8.53755 12.345 11.7722
2 0.905812 4.75909 7.98427
2 7.73812 -0.480013 1.76706
2 4.60692 7.34049 10.1667
2 4.74075 0.440952 2.3452
2 0.0640011 7.8874 7.14708
2 4.41868 10.6685 0.240972
2 3.31223 4.53305 6.93023
2 8.13195 1.74278 13.3392
2 3.33385 7.89219 7.25523
2 7.60903 10.1866 13.1373
2 11.5524 3.70266 7.01788
2 4.1326 2.04082 0.19863
2 0.105382 5.39952 4.96218
2 5.91886 10.378 11.3972
2 11.6465 7.57023 0.796938
2 6.07571 1.2877 11.7009
2 3.10542 5.78629 9.18617
2 6.05689 1.63882 1.47948
2 11.5361 6.42218 8.68803
2 6.14942 11.1644 1.42664
2 10.4183 9.11943 8.79893
2 3.29628 11.1963 2.66542
2 2.28006 3.37099 9.79998
2 8.9817 2.05835 2.12209
2 2.22288 8.3844 9.27206
2 8.91003 9.81933 2.23135
2 11.0539 3.91242 9.76905
2 3.09406 2.64045 1.8622
2 2.60605 3.23046 4.07584
2 8.49735 2.26273 10.798
2 9.37715 11.0703 0.116626
2 3.233 10.3834 10.5274
2 10.8111 3.66558 4.21419
2 3.2722 1.43799 11.1082
2 0.805697 9.53704 1.91446
2 9.04375 10.0818 10.8819
2 11.5688 11.774 13.4534
2 1.36664 11.9263 6.54926
2 12.0701 2.52935 0.187266
2 10.5342 12.5905 6.75858
2 1.04732 11.6251 1.47812
2 12.5827 0.347352 7.667
2 0.996961 -0.0241826 12.4013
2 12.3571 0.331153 5.39831
2 11.3168 1.84474 3.01632
2 10.4918 12.0473 9.19759
2 10.9777 9.07534 2.8684
2 1.87976 0.660822 8.82154
2 0.666355 4.18603 2.52248
2 1.24888 10.9929 8.96756
2 11.1536 11.7842 2.71799
2 10.5275 1.8987 8.46545
2 1.08895 10.8152 11.6369
2 2.65083 0.75541 4.79474
2 11.525 1.85876 11.2457
2 10.5933 11.0931 4.60172
2 11.4957 10.708 10.839
2 9.63732 0.889662 4.21747
2 0.669535 2.43816 11.1283
2 0.889309 11.2927 3.70349
1 11.5495 7.98661 7.7815
1 4.58452 11.6265 1.69994
1 2.33677 4.28011 8.55994
1 7.66675 1.21506 1.339
1 3.49631 7.42777 8.8155
1 7.86006 10.9217 1.15755
1 12.0192 4.61181 8.54528
1 4.35929 1.79204 1.76663
1 2.17401 4.08159 5.56909
1 7.97282 1.11925 11.8134
1 0.329958 6.8995 5.47482
1 4.33417 10.8413 11.7916
1 12.052 4.12759 5.03912
1 4.34517 1.06089 12.2209
1 12.4119 8.34922 2.18025
1 7.78094 10.7615 11.5674
1 10.1493 10.2896 3.19465
1 1.68265 9.8349 10.2668
1 2.19653 3.69708 2.61812
1 9.95971 2.42596 10.0292
1 1.72628 10.7344 2.4868
1 10.1822 10.3739 9.83793
1 10.0437 2.33158 3.39672
1 1.75314 1.77346 10.3478
1 12.4178 2.61868 1.76465
1 11.0213 0.321778 8.05234
1 12.1342 12.0667 1.51602
1 0.915749 12.4306 7.90102
1 12.4158 11.7962 11.8302
1 1.19115 12.5464 5.11758
1 -0.132289 1.71068 12.4873
1 10.4189 -0.270943 5.02111
96
 Atoms. Timestep: 8000
2 0.289039 8.25876 4.65714
2 4.68882 12.1343 11.0534
2 -0.319089 4.05055 5.42007
2 7.677 0.0616697 12.6436
2 12.4248 4.53544 8.35131
2 7.85303 0.622529 2.1036
2 12.8122 7.55339 8.91859
2 5.3609 12.9247 1.54773
2 11.5521 7.23347 7.11517
2 4.85202 10.3918 12.9021
2 1.8168 4.58056 6.70926
2 7.96361 1.989 0.0337463
2 0.291618 8.07219 6.76109
2 8.3144 11.4905 0.5341
2 10.6532 4.06199 6.30088
2 4.92786 1.13876 13.1753
2 11.5599 6.35837 4.93776
2 6.98982 10.5413 11.9748
2 0.411599 8.3897 1.9278
2 6.28057 1.76299 11.181
2 1.62721 6.08161 8.19939
2 5.92708 2.48349 1.63056
2 10.6912 6.10135 8.58251
2 6.94958 10.8992 2.00498
2 11.0347 9.08458 9.20945
2 4.2004 11.1011 2.16175
2 0.985134 3.47621 9.90249
2 8.71337 3.16247 2.32273
2 1.86721 8.64196 9.07842
2 9.60572 10.7402 2.45096
2 10.349 3.29936 9.67919
2 3.45001 1.66035 2.24511
2 2.15757 2.92754 3.96826
2 8.94949 2.11218 11.1587
2 8.88712 12.1003 3.99303
2 3.67955 9.74095 11.1494
2 10.8579 4.23399 3.36084
2 3.11382 1.19215 11.0815
2 2.30523 9.85039 2.78379
2 9.27964 11.1708 11.3045
2 0.0105782 10.2679 13.5644
2 1.36269 13.0617 6.9394
2 12.1724 0.607119 13.2439
2 10.9558 0.696994 6.47952
2 1.67519 12.0098 1.72292
2 12.5438 12.0036 8.82749
2 0.147008 12.3046 11.1813
2 -0.351744 0.336636 4.61667
2 11.6061 2.37287 1.43936
2 10.4156 11.1093 8.62959
2 12.6701 9.84225 3.56524
2 1.27681 1.01255 8.85997
2 0.57762 1.06274 2.26063
2 2.04295 11.3548 9.41032
2 11.6131 11.4623 2.22628
2 9.97253 0.666422 8.59412
2 1.57444 10.0359 11.4008
2 2.07726 1.01931 4.44851
2 11.2969 1.81009 11.0386
2 11.1552 12.045 4.28216
2 11.2744 10.4596 11.326
2 11.1578 1.77751 3.35335
2 1.05948 1.45072 11.4125
2 2.34607 11.7504 4.79879
1 11.1164 7.54505 8.90389
1 5.60902 10.9942 0.902663
1 1.13235 4.50658 8.35223
1 7.64957 2.42913 1.66572
1 1.10587 7.67687 7.99563
1 8.38308 12.0172 2.22061
1 10.861 4.60898 8.12313
1 4.86606 1.45338 1.30552
1 1.26596 4.38124 5.00981
1 7.73574 1.81688 12.1916
1 12.4913 7.33118 5.62093
1 5.19369 10.7091 11.3594
1 11.3227 4.45197 4.95047
1 4.68866 0.751057 11.5146
1 0.97607 9.11803 3.18748
1 8.13986 11.3968 12.603
1 10.9519 10.4628 3.55481
1 2.45932 9.78085 10.1171
1 1.92539 1.76287 2.96614
1 9.95722 1.7574 9.98824
1 2.84949 11.2631 2.92324
1 10.3614 10.3375 10.1746
1 10.1915 3.27723 2.30309
1 1.95506 1.80289 10.086
1 12.3036 1.04594 1.15654
1 10.9211 12.499 7.90339
1 -0.0625112 11.4247 1.20047
1 1.0596 12.4 8.64438
1 0.00142268 10.4482 11.8434
1 1.19478 12.6891 5.37101
1 12.5113 1.14422 11.7628
1 10.9968 0.713069 4.88981
96
 Atoms. Timestep: 10000
2 -0.104916 9.04722 5.82566
2 4.7031 12.8731 12.1681
2 12.6882 3.41433 5.41036
2 7.53097 0.100516 11.6377
2 11.9188 5.43511 8.37625
2 8.17586 12.6775 1.33806
2 12.6637 7.80392 9.61648
2 4.18765 -0.252993 1.61243
2 11.0356 8.04875 7.63811
2 4.79298 10.464 0.170726
2 1.3192 4.35392 7.18584
2 8.02434 1.71355 -0.365024
2 0.693615 6.85864 7.42342
2 8.93086 11.4198 13.0261
2 10.7176 4.41215 6.70476
2 4.68569 1.68285 -0.106802
2 11.6127 6.04023 5.7936
2 6.66727 10.3992 11.7958
2 2.52318 4.49878 5.5281
2 6.46298 2.10932 12.0124
2 0.835233 5.58042 9.54408
2 6.36651 1.3725 2.1396
2 10.3876 6.40259 9.52956
2 6.51885 11.7604 0.709314
2 10.1567 9.4507 9.46128
2 4.44439 9.82664 2.30338
2 1.34019 3.1315 9.27655
2 9.36722 2.20232 1.79345
2 1.56206 9.2582 9.26004
2 9.63584 10.6969 1.74312
2 9.88925 3.97052 9.16964
2 3.82461 2.29297 2.08573
2 1.37574 3.07021 4.16409
2 9.23367 1.61342 10.8607
2 7.55318 9.5483 13.434
2 3.47896 10.7304 11.0257
2 10.253 4.01394 3.96379
2 3.85478 2.5381 11.1444
2 1.33852 9.36965 3.35071
2 8.56583 11.438 10.1492
2 12.5091 11.4376 12.8595
2 2.1139 12.8353 6.4777
2 0.00236479 12.7723 1.23435
2 10.7827 0.103983 5.93671
2 1.5108 10.2142 1.08595
2 -0.179679 -0.0771163 7.94448
2 0.132409 0.0980125 10.6968
2 12.6679 11.7106 4.37348
2 11.9686 2.29352 1.83817
2 10.3228 11.9906 8.06357
2 12.0414 9.4177 3.27177
2 2.68659 1.41541 8.91448
2 1.39605 1.55777 2.70594
2 2.17722 11.5827 8.28538
2 11.7587 11.1229 1.54851
2 10.5648 1.46296 8.36237
2 0.989714 10.6667 10.9888
2 2.66122 0.923176 4.69452
2 11.5071 2.04789 11.1958
2 10.4022 11.1761 3.64234
2 11.1477 11.4246 10.899
2 11.8948 0.0990076 3.14662
2 0.798187 2.28159 12.9839
2 2.69972 10.6708 4.39216
1 10.7233 7.98689 9.09621
1 5.20618 11.6217 1.52213
1 0.211596 4.30486 8.47003
1 8.08201 1.15855 1.47549
1 1.02237 7.478 9.34789
1 8.28407 11.0785 0.871619
1 10.4478 5.09355 8.2728
1 4.80556 1.34282 1.41612
1 1.23051 3.53476 5.77915
1 7.97134 1.81074 11.9637
1 12.4428 7.65271 6.5543
1 4.76251 11.1091 12.1831
1 11.4272 4.47392 5.36929
1 4.9205 1.65469 12.029
1 -0.0650371 9.80048 4.34794
1 8.02889 11.6258 11.6514
1 10.8429 10.0712 2.47045
1 2.10954 10.7407 9.74276
1 2.64034 1.99107 3.47197
1 10.506 2.26707 10.0943
1 2.74135 9.95274 2.53313
1 10.0677 11.1217 9.35987
1 10.6752 3.206 2.34398
1 2.52172 2.45622 10.3098
1 -0.111033 1.07215 2.15498
1 11.0821 0.206398 7.56889
1 0.104167 11.2774 0.78327
1 1.59646 0.352109 7.86929
1 12.7126 11.6388 11.2269
1 1.50758 12.2883 5.02042
1 0.0976532 1.91559 11.5699
1 10.9899 12.1991 4.49231
96
 Atoms. Timestep: 12000
2 0.0329706 7.98346 4.75171
2 4.04555 12.6955 10.8678
2 11.7177 3.31993 5.73223
2 7.73748 -0.0914964 11.2912
2 11.9336 4.458 8.32449
2 8.51561 0.771011 0.764167
2 0.603726 8.03772 8.79922
2 3.8214 0.21789 1.74007
2 12.5121 8.16192 7.03029
2 3.97444 11.4328 13.0466
2 0.777515 3.58741 7.08913
2 8.00432 1.89753 12.8434
2 3.24059 7.12405 7.50664
2 7.94965 11.6468 9.65653
2 10.189 5.11004 7.53155
2 4.00353 1.35778 13.6078
2 11.48 6.42204 5.66698
2 6.12326 10.9289 11.1823
2 0.506389 5.41079 5.81519
2 6.19582 1.28807 11.3177
2 1.65276 5.53759 8.36148
2 6.36801 2.02379 1.39799
2 10.5198 6.96371 8.84492
2 5.86974 11.6158 0.915575
2 11.6396 9.45304 9.72777
2 4.01689 10.6247 2.15517
2 1.34761 3.04482 9.36286
2 8.27526 3.67764 1.8737
2 2.63162 8.21075 9.48585
2 9.27964 11.3925 1.09873
2 10.4559 3.46176 9.78789
2 3.83746 1.9833 2.58695
2 1.67675 3.1158 4.44113
2 8.79379 1.66443 9.95117
2 8.45167 11.6388 12.9172
2 3.59195 9.6893 10.8962
2 9.30684 4.10794 4.82623
2 3.99738 1.95933 10.4116
2 1.49609 8.84806 2.83327
2 9.56718 10.4917 10.7182
2 0.854511 11.9898 0.226352
2 2.17599 11.8938 6.93423
2 1.71095 0.22092 2.34854
2 11.2536 12.346 5.97053
2 1.62228 10.6343 1.86472
2 -0.0526787 -0.319521 8.81993
2 -0.0067256 0.102836 12.1578
2 0.50286 11.9541 4.88877
2 10.8464 3.82197 2.83421
2 10.8287 11.7799 8.9934
2 11.4251 9.45444 2.5363
2 2.36049 0.50662 9.11437
2 0.650817 2.67756 2.48998
2 1.60688 10.5359 9.46244
2 11.9795 11.9062 1.72154
2 11.3319 1.11247 8.39391
2 1.62052 10.5149 11.8036
2 2.44836 0.690762 4.82141
2 10.9733 0.799485 10.9113
2 11.0379 11.1135 3.61709
2 12.1131 11.1337 11.7757
2 11.946 0.94375 3.73094
2 11.6812 1.81909 0.632085
2 2.7075 10.9383 4.54516
1 11.9177 8.02284 8.70063
1 4.37516 11.7782 0.969773
1 0.579773 4.23304 8.44201
1 8.12217 2.5048 0.736014
1 1.94983 7.38326 8.24665
1 7.67805 12.331 0.667519
1 10.569 4.95687 9.052
1 4.78472 1.55017 1.29106
1 0.470955 3.41744 5.52858
1 7.82782 1.50872 11.3815
1 13.1705 6.93563 5.94893
1 4.53711 11.047 11.278
1 10.5379 4.79509 5.81497
1 4.46484 1.23637 11.7365
1 0.0345013 8.86266 3.38047
1 7.84475 11.1389 11.2922
1 10.7451 10.6669 2.10907
1 1.94786 9.3603 10.7204
1 2.17754 1.72802 3.27182
1 10.3826 1.96213 9.64384
1 2.63094 10.0831 3.08153
1 11.0069 10.7693 10.2869
1 9.1981 4.39325 3.004
1 2.78778 2.12849 9.49024
1 11.9568 2.40634 2.28619
1 11.4087 12.6334 7.78122
1 0.585857 12.0148 1.71063
1 1.6549 12.0664 8.5299
1 0.494543 11.6885 12.3521
1 2.10764 12.2896 5.26079
1 11.666 0.812948 12.5525
1 11.8706 12.4636 4.44405
96
 Atoms. Timestep: 14000
2 12.0311 7.57153 4.32077
2 4.52755 -0.244341 12.0557
2 12.3981 3.47439 5.0135
2 7.65763 12.6729 11.7338
2 0.249363 4.36468 8.68901
2 7.78561 0.379174 1.43541
2 -0.161724 7.72537 9.72964
2 4.90989 0.258464 1.73463
2 12.7362 8.38224 6.56785
2 4.09252 11.2005 0.0991619
2 1.07718 4.54263 6.26033
2 7.66993 2.20619 13.209
2 2.68159 7.17629 10.9805
2 8.8941 12.0608 10.1365
2 11.6051 3.92671 7.12302
2 4.18448 2.00799 -0.0489517
2 11.5616 5.84905 5.74916
2 6.76356 10.6524 12.2554
2 0.493772 5.39113 4.52193
2 5.45837 1.61238 11.7968
2 1.95683 6.28995 8.5483
2 6.36601 2.2161 1.92205
2 11.5304 6.48334 8.88688
2 6.12545 11.3299 1.5466
2 11.2616 9.36282 8.84663
2 3.20525 9.98044 2.07568
2 2.28272 3.53212 9.10556
2 9.0982 2.5311 1.50229
2 2.44172 9.00583 9.93355
2 9.09042 12.0041 1.45684
2 10.4432 3.686 9.3753
2 3.33248 1.78562 2.20158
2 1.80786 2.56284 3.94692
2 8.46066 1.32536 10.1026
2 8.11864 10.9102 -0.191207
2 4.41999 10.5815 11.1209
2 9.64451 3.38709 4.90141
2 2.81395 1.99554 11.2672
2 0.249535 8.77812 2.78077
2 10.1284 10.4363 11.2401
2 0.456913 12.0137 -0.222503
2 1.33415 11.5036 6.63034
2 1.30945 -0.120931 2.20132
2 11.2445 -0.0672577 6.2378
2 1.04252 10.7143 1.66097
2 -0.0475715 -0.0753548 7.88026
2 0.267668 0.563946 11.7503
2 0.125586 12.2339 4.95874
2 11.2645 3.33912 2.63652
2 11.0666 11.7895 9.03771
2 11.1113 9.67518 2.34841
2 2.31116 0.795018 8.45295
2 0.619463 1.72191 2.08212
2 2.54546 11.7719 8.82815
2 11.8203 12.2309 2.07896
2 10.9097 1.41072 8.49708
2 1.81209 11.2419 11.668
2 2.35991 -0.212316 4.09073
2 11.281 1.96392 10.8591
2 10.743 11.9694 3.76409
2 12.4099 10.9408 10.9251
2 11.9126 1.05525 3.37604
2 11.9349 2.08703 -0.0608695
2 2.1435 10.2896 4.31124
1 12.1673 7.9857 8.2585
1 4.35228 11.4782 1.73853
1 1.66632 4.72498 8.01525
1 7.70702 1.89564 1.01687
1 1.456 7.23145 9.78397
1 7.57917 11.7736 1.42323
1 11.5769 4.46103 8.65246
1 4.88117 1.94556 1.55691
1 0.759764 3.80506 4.55026
1 7.17269 1.29475 11.556
1 -0.110035 6.9307 5.43004
1 5.16685 11.5114 12.3886
1 10.8794 4.18287 5.69027
1 3.82142 1.12844 12.2745
1 11.9015 8.32851 2.90733
1 8.55695 11.1187 11.7971
1 10.3453 11.358 2.26271
1 2.81428 10.6763 10.2943
1 1.98903 1.07079 3.14883
1 9.91949 2.16951 9.78518
1 1.51591 9.6873 2.64791
1 11.1801 10.3875 10.0356
1 9.60132 3.3929 2.80811
1 2.40209 1.95935 9.5721
1 12.1895 1.91145 1.71659
1 11.5531 -0.222942 7.98747
1 0.196782 12.0905 1.45485
1 1.44252 12.5786 7.7008
1 0.236106 11.9752 11.8613
1 1.82785 11.6624 5.02767
1 11.973 1.66037 12.2398
1 11.7471 0.104465 4.54336
96
 Atoms. Timestep: 16000
2 0.405726 7.92411 5.17933
2 5.85564 8.68954 10.8294
2 12.2706 4.5237 5.37132
2 8.85622 -0.250314 12.372
2 11.9878 4.50411 8.33105
2 8.46508 0.192123 1.61297
2 0.0613342 7.03104 9.74837
2 4.3116 12.1998 1.24269
2 12.2106 8.34089 7.58774
2 5.10255 10.1688 13.1904
2 1.01375 3.38893 7.14773
2 7.31797 1.62346 0.397706
2 2.10329 6.17399 11.4511
2 6.94062 10.5402 12.0433
2 10.0475 4.94936 6.72372
2 5.19636 1.55124 13.0018
2 11.2995 6.71398 5.69682
2 5.34089 11.9873 11.4812
2 0.649615 5.91504 6.68162
2 6.80046 0.933932 11.8811
2 1.46324 4.85377 9.48442
2 5.72785 1.09055 1.89953
2 10.5985 6.78404 8.79396
2 6.89974 10.5724 1.84478
2 10.8193 9.38514 9.0301
2 3.85354 10.1671 2.10637
2 1.24504 2.54902 9.73098
2 7.64957 2.98574 2.68387
2 2.66596 8.03495 9.48123
2 9.55316 10.9713 2.34032
2 10.2449 3.84952 9.21189
2 3.14053 1.64889 1.82846
2 1.40449 3.85925 4.38511
2 9.33525 2.3957 12.6974
2 9.38183 10.9086 0.0236249
2 3.67246 10.3409 10.4769
2 9.60907 5.16724 4.21825
2 4.23122 1.6222 10.8195
2 1.75969 8.7828 2.58101
2 9.80474 10.9516 11.1845
2 0.209702 11.9318 12.6455
2 2.5414 12.6919 6.10382
2 11.9795 0.782397 1.373
2 10.8692 0.472216 5.56951
2 1.16719 11.6186 1.61063
2 0.152908 12.4777 7.47179
2 1.17454 0.112356 10.4125
2 0.0686047 0.293246 4.52174
2 10.4885 3.69771 2.56091
2 11.0658 12.0937 8.31167
2 11.7672 8.78256 3.08665
2 2.41193 0.574007 8.56119
2 0.919837 2.49428 2.11452
2 2.69983 10.8792 8.10088
2 12.0363 11.1029 1.45406
2 11.0524 1.74297 8.0258
2 1.55746 10.6706 10.6676
2 2.1244 1.65135 4.31201
2 11.2848 2.57969 10.8756
2 11.0643 11.5135 3.85385
2 11.866 11.4053 10.1584
2 11.4192 1.68844 3.29848
2 11.5298 2.81417 0.220384
2 2.45503 11.7733 3.26149
1 11.688 7.93103 9.23791
1 5.21212 10.7475 1.23622
1 0.330367 3.66375 9.07163
1 7.35006 1.44004 2.00103
1 1.62132 6.4073 9.86837
1 8.46443 11.2977 1.39416
1 10.5164 5.18841 8.40724
1 4.31297 0.99274 0.886278
1 1.21101 4.42121 5.8587
1 8.12216 1.27377 12.5242
1 12.6303 7.22462 6.48013
1 5.27027 10.2106 11.5183
1 10.5296 5.3317 5.27856
1 5.29483 0.72087 11.7189
1 0.583317 7.85036 3.39641
1 8.55667 11.1405 12.1945
1 11.1341 10.1812 2.37278
1 2.35135 9.73754 9.61631
1 2.18824 2.57695 3.0015
1 10.4316 2.31839 9.37504
1 2.4107 10.5417 2.35836
1 10.3571 11.3158 9.59681
1 8.7315 3.96125 3.28107
1 2.64153 1.20239 10.1106
1 11.8547 2.38319 1.87411
1 11.4526 0.30057 7.22022
1 -0.0696568 12.3726 0.741352
1 1.9159 12.1009 7.51195
1 0.296616 11.8841 10.9791
1 1.67381 0.0704074 4.59005
1 10.7127 3.2184 12.497
1 11.461 0.228619 4.0682
96
 Atoms. Timestep: 18000
2 12.7872 7.93715 3.61043
2 5.80109 4.62318 6.26127
2 12.3453 3.70362 4.8795
2 8.27652 13.06 11.6679
2 -0.293405 3.83761 8.74751
2 7.49186 -0.281615 1.24628
2 -0.0517792 7.8128 9.2687
2 4.0213 -0.0283733 1.21202
2 12.6442 7.8407 6.36906
2 4.73193 11.0224 -0.281768
2 0.714566 3.63428 6.39974
2 8.03405 1.54528 0.15152
2 1.65124 6.35027 10.8973
2 6.53683 10.3456 11.9117
2 11.017 4.28397 7.1148
2 4.36532 1.82637 13.1671
2 11.3646 6.17363 5.20073
2 4.62527 12.6554 12.3183
2 0.194891 5.56264 4.8396
2 6.84912 1.10539 12.563
2 1.7443 6.02702 8.36798
2 5.72842 1.86196 1.37786
2 11.9254 6.33711 8.57378
2 6.23056 11.2028 1.35855
2 11.1764 9.33827 8.72366
2 3.56723 11.5835 2.07954
2 2.3212 3.29599 8.78092
2 8.24217 2.03046 2.71913
2 2.32523 8.62053 9.05467
2 9.18576 10.9798 1.39576
2 10.6822 3.31667 9.75376
2 3.38233 1.89998 2.32933
2 1.2937 3.26967 3.68418
2 9.66299 2.1847 13.1836
2 8.28518 11.9012 13.6481
2 3.83171 10.4673 10.4987
2 9.81733 3.79113 4.85522
2 4.01939 1.55828 10.8388
2 1.0885 10.1804 3.13074
2 9.30746 10.7076 10.8268
2 -0.0177844 11.453 12.8686
2 1.69051 -0.0835707 7.02999
2 13.0729 0.492174 0.578174
2 11.0227 0.401212 5.61211
2 0.893088 12.1899 1.74273
2 12.9795 0.0864454 8.56927
2 1.31514 12.1303 10.5862
2 0.0302151 -0.210639 5.26666
2 11.1383 2.17704 2.59759
2 10.5832 12.1799 8.35727
2 11.8583 10.0105 1.92582
2 2.02713 1.1092 8.88947
2 1.0587 1.49346 2.12418
2 2.32472 11.9287 8.86892
2 11.6139 12.0199 0.469203
2 10.4675 1.16028 8.5466
2 1.3199 9.61341 10.5089
2 2.57586 0.982862 4.61673
2 11.225 2.17246 11.7346
2 11.3818 11.7687 3.14894
2 12.1527 11.1851 10.5211
2 12.4282 0.748054 3.16192
2 11.8621 2.34801 0.497599
2 2.15483 12.1646 4.21524
1 12.3356 7.96578 8.04438
1 4.74278 11.7163 1.10092
1 1.02352 4.16614 8.00333
1 7.23548 1.24022 1.59182
1 1.46058 7.31062 9.53934
1 7.77823 11.5291 1.13545
1 11.4996 4.56207 8.6122
1 4.18809 1.50143 0.774269
1 0.464598 3.80914 4.8702
1 8.33009 1.25169 12.6479
1 12.7983 6.99383 4.80939
1 4.8855 11.0546 11.9542
1 11.091 4.5178 5.60736
1 5.10488 0.904507 11.9308
1 -0.496434 9.47978 3.16403
1 8.09174 11.3683 11.9657
1 10.7552 11.61 1.74273
1 2.54452 10.112 9.5423
1 2.31768 1.80153 3.20655
1 10.8587 1.64134 10.1462
1 1.90921 11.5453 2.72757
1 10.5857 10.7287 9.57981
1 9.57059 2.62621 3.6398
1 3.30971 1.76448 9.34063
1 12.8031 1.43221 1.76309
1 11.2538 0.219966 7.49663
1 -0.134296 12.4076 0.22887
1 1.198 13.0802 8.67686
1 0.236004 10.9182 11.121
1 1.7355 -0.277343 5.5756
1 11.0619 3.07399 13.2284
1 12.1275 -0.373625 4.30106
96
 Atoms. Timestep: 20000
2 0.300679 8.091 5.03453
2 9.40292 9.52995 3.30424
2 11.9628 3.92305 5.68542
2 7.58537 0.154235 12.224
2 -0.00651312 4.72674 8.89236
2 7.94369 12.6544 1.47009
2 -0.0531483 7.99343 8.4879
2 4.67044 12.1446 1.67774
2 12.2262 7.57057 6.66747
2 5.19563 11.5312 12.9948
2 1.68922 3.5471 7.10616
2 8.0173 1.62581 0.966734
2 1.28806 6.56654 7.09951
2 6.50728 10.9633 10.7198
2 10.6471 4.37476 7.59705
2 5.20482 1.19666 -0.210806
2 11.6303 6.09555 5.48607
2 5.21326 0.547926 11.0622
2 0.73937 5.10996 5.29924
2 6.39472 2.68947 12.607
2 1.85877 5.45013 9.17503
2 5.9014 1.63901 2.17362
2 10.8565 6.32483 8.65093
2 6.53274 10.4936 1.16193
2 10.5524 9.52592 8.17918
2 3.58847 10.2921 1.53665
2 1.08171 2.97507 9.73261
2 8.13543 1.67715 3.81552
2 2.46169 8.48855 9.14504
2 9.60123 10.5531 1.59791
2 11.5391 3.37785 9.89288
2 3.21717 1.84191 2.80937
2 1.54967 2.5296 5.25632
2 9.34492 2.31443 12.9933
2 8.35419 10.6837 12.9961
2 3.89684 10.465 10.4427
2 9.6764 3.45322 5.24203
2 3.42574 1.93535 11.2015
2 1.44669 9.29954 2.84003
2 9.47592 10.9144 10.4918
2 0.371784 -0.54315 12.0854
2 2.19816 12.1151 6.44086
2 -0.341059 0.80999 1.25634
2 11.1119 0.184362 5.68462
2 0.452975 11.2709 0.962524
2 -0.187373 12.8242 7.36711
2 -0.00232122 0.341878 9.30986
2 0.194154 -0.344138 4.95076
2 10.288 3.10911 2.4578
2 10.8624 12.3533 8.40638
2 11.8427 9.19567 2.71629
2 2.2341 0.534163 8.79124
2 0.552637 2.68844 2.8757
2 2.29866 11.3165 9.05585
2 11.6318 0.303494 -0.342134
2 11.4166 1.40991 8.80064
2 1.13365 10.8262 10.7641
2 2.53036 0.520353 4.36541
2 11.9646 1.34074 11.5288
2 11.5002 12.1083 3.10976
2 11.9261 10.9572 9.84983
2 11.5556 1.16744 2.94097
2 11.4816 2.4113 0.482979
2 1.975 11.5902 3.24181
1 11.3904 8.16227 7.90221
1 4.90223 10.9126 0.801505
1 1.34417 3.90706 8.56457
1 7.43367 0.621385 2.59058
1 1.4964 7.34032 8.53253
1 8.0832 10.9837 1.00468
1 11.5059 4.71291 9.01688
1 4.2888 1.10229 1.44797
1 0.492503 3.65725 5.9463
1 7.87149 1.70544 13.0506
1 0.187786 6.5248 5.84589
1 5.00843 11.6547 11.1274
1 10.5553 4.61713 6.11924
1 4.91024 2.24624 12.2287
1 0.0393557 8.82692 3.52452
1 8.25719 11.5463 11.5808
1 10.777 10.4229 2.67465
1 2.17775 10.0241 9.88935
1 1.89387 2.03173 3.72423
1 12.5612 1.96166 10.2652
1 1.78642 10.5559 1.89201
1 10.2244 10.9008 9.01241
1 9.26512 2.80638 3.86108
1 2.2238 1.67838 10.1877
1 11.8571 2.34489 2.00659
1 11.4543 0.425039 7.59523
1 -0.23625 12.5984 -0.0200672
1 1.35018 12.4809 7.97086
1 -0.00829781 12.1907 10.7495
1 1.77662 12.1683 4.8274
1 10.9562 1.83958 12.8602
1 11.8013 0.178653 4.07893
96
 Atoms. Timestep: 22000
2 0.796526 7.44585 4.55773
2 12.1405 10.4603 0.783265
2 12.5777 3.82506 5.10455
2 7.48721 0.513484 12.9822
2 11.6934 4.60676 7.87551
2 5.74137 5.22801 3.47559
2 12.3883 7.62456 9.67747
2 4.66945 -0.403365 2.0518
2 12.2947 7.4862 7.26369
2 5.59362 11.1073 13.3202
2 1.10588 4.22849 6.94958
2 7.06373 3.385 0.962339
2 1.98142 7.79784 7.9116
2 6.89297 11.0872 11.679
2 10.5614 5.42843 6.11855
2 4.28354 2.01507 0.397158
2 11.5837 6.22642 3.80661
2 4.89503 0.392867 11.3062
2 1.86723 6.30485 6.01566
2 6.55285 2.57799 12.2394
2 1.4438 5.71436 9.3874
2 5.06774 2.77445 2.42462
2 9.95895 6.49588 8.5043
2 6.69021 10.313 1.96747
2 10.1714 9.50463 8.96323
2 3.8558 9.89685 2.0249
2 1.72009 2.81134 9.51737
2 7.55463 3.41799 3.40313
2 2.51589 8.49115 9.72962
2 9.64184 10.0767 1.99197
2 9.70161 3.66266 7.96386
2 3.09418 2.30255 2.14556
2 1.96865 3.26039 4.1052
2 9.29308 2.47286 13.0416
2 8.30818 10.4376 -0.00341288
2 4.70467 10.0324 10.6321
2 10.3568 3.42702 4.72136
2 3.13763 1.75445 11.7454
2 1.58726 7.92812 2.47838
2 8.99791 10.709 10.9686
2 1.17567 11.5249 12.9762
2 2.50909 11.3279 6.51904
2 0.862886 0.705789 1.59717
2 10.9756 12.5877 5.53506
2 1.25295 10.7211 2.06873
2 0.469529 12.6789 6.97443
2 1.07451 0.325408 11.4551
2 0.517662 12.1067 4.08892
2 10.5972 2.63958 2.65368
2 11.3129 11.4353 8.72896
2 11.841 8.11099 2.08256
2 2.41757 0.336377 9.4189
2 0.285795 2.83282 2.07301
2 3.05436 11.0766 8.65976
2 9.49693 0.259034 11.5359
2 10.1591 1.22794 8.13813
2 2.19823 10.5841 10.7542
2 2.28249 1.17811 4.15751
2 10.3142 2.6003 10.6081
2 11.7059 10.8564 3.4169
2 12.0502 10.9484 10.7268
2 11.7069 0.863299 2.98141
2 11.4152 1.84369 -0.0711385
2 2.52396 10.3096 4.08518
1 10.8469 7.83123 8.53198
1 5.13932 10.767 1.76247
1 0.899652 4.12214 8.52297
1 6.4803 3.97385 2.39067
1 1.38232 7.31 9.353
1 8.09813 9.97376 1.41904
1 9.92825 5.19913 7.59086
1 4.37986 1.33362 1.93247
1 1.41845 4.41444 5.3589
1 7.59895 2.22596 13.253
1 1.32226 7.75278 6.35168
1 5.20095 11.3517 11.5987
1 11.2064 4.71646 4.68781
1 4.85707 1.93651 12.0129
1 0.218027 7.26382 3.07553
1 8.45722 11.8215 12.2233
1 11.1269 9.7276 1.79559
1 3.38225 9.90613 9.88705
1 1.48272 1.98627 2.82855
1 9.96809 2.4495 9.06935
1 2.3044 9.35615 2.51766
1 10.4901 10.8927 10.04
1 9.28464 2.50253 3.69658
1 2.04518 1.40857 10.555
1 11.4666 1.92847 1.54856