96
 Atoms. Timestep: 0
2 0 7.95642 4.74695
2 4.63304 0 11.358
2 0 4.63304 4.74695
2 7.95642 0 11.358
2 0 4.63304 8.47514
2 7.95642 0 1.8641
2 0 7.95642 8.47514
2 4.63304 0 1.8641
2 10.7421 8.43088 6.61105
2 4.15858 10.7421 0
2 1.84736 4.15858 6.61105
2 8.43088 1.84736 0
2 1.84736 8.43088 6.61105
2 8.43088 10.7421 0
2 10.7421 4.15858 6.61105
2 4.15858 1.84736 0
2 10.5201 6.29473 5.04003
2 6.29473 10.5201 11.6511
2 2.06934 6.29473 5.04003
2 6.29473 2.06934 11.6511
2 2.06934 6.29473 8.18207
2 6.29473 2.06934 1.57102
2 10.5201 6.29473 8.18207
2 6.29473 10.5201 1.57102
2 10.1594 8.65935 9.20274
2 3.93011 10.1594 2.59169
2 2.43004 3.93011 9.20274
2 8.65935 2.43004 2.59169
2 2.43004 8.65935 9.20274
2 8.65935 10.1594 2.59169
2 10.1594 3.93011 9.20274
2 3.93011 2.43004 2.59169
2 2.43004 3.93011 4.01936
2 8.65935 2.43004 10.6304
2 10.1594 8.65935 4.01936
2 3.93011 10.1594 10.6304
2 10.1594 3.93011 4.01936
2 3.93011 2.43004 10.6304
2 2.43004 8.65935 4.01936
2 8.65935 10.1594 10.6304
2 0 10.703 0
2 1.88643 0 6.61105
2 0 1.88643 0
2 10.703 0 6.61105
2 0 0 1.872
2 0 0 8.48305
2 0 0 11.3501
2 0 0 4.73905
2 11.2706 2.31295 2.18973
2 10.2765 11.2706 8.80078
2 1.31887 10.2765 2.18973
2 2.31295 1.31887 8.80078
2 1.31887 2.31295 2.18973
2 2.31295 11.2706 8.80078
2 11.2706 10.2765 2.18973
2 10.2765 1.31887 8.80078
2 1.31887 10.2765 11.0324
2 2.31295 1.31887 4.42131
2 11.2706 2.31295 11.0324
2 10.2765 11.2706 4.42131
2 11.2706 10.2765 11.0324
2 10.2765 1.31887 4.42131
2 1.31887 2.31295 11.0324
2 2.31295 11.2706 4.42131
1 11.0086 7.83654 8.10972
1 4.75292 11.0086 1.49867
1 1.5809 4.75292 8.10972
1 7.83654 1.5809 1.49867
1 1.5809 7.83654 8.10972
1 7.83654 11.0086 1.49867
1 11.0086 4.75292 8.10972
1 4.75292 1.5809 1.49867
1 1.5809 4.75292 5.11238
1 7.83654 1.5809 11.7234
1 11.0086 7.83654 5.11238
1 4.75292 11.0086 11.7234
1 11.0086 4.75292 5.11238
1 4.75292 1.5809 11.7234
1 1.5809 7.83654 5.11238
1 7.83654 11.0086 11.7234
1 10.1088 10.1088 3.30552
1 2.48067 10.1088 9.91657
1 2.48067 2.48067 3.30552
1 10.1088 2.48067 9.91657
1 2.48067 10.1088 3.30552
1 10.1088 10.1088 9.91657
1 10.1088 2.48067 3.30552
1 2.48067 2.48067 9.91657
1 0 1.60471 1.57853
1 10.9848 0 8.18958
1 0 10.9848 1.57853
1 1.60471 0 8.18958
1 0 10.9848 11.6436
1 1.60471 0 5.03252
1 0 1.60471 11.6436
1 10.9848 0 5.03252
96
 Atoms. Timestep: 2000
2 12.7178 8.28607 4.98787
2 4.46954 12.2029 11.0553
2 12.325 5.88231 5.2395
2 8.14936 12.2813 11.2606
2 11.8847 4.76917 8.75116
2 7.76401 12.6683 1.93407
2 12.0509 8.02697 7.66055
2 5.2343 12.6872 1.15403
2 10.3377 8.14933 6.17171
2 4.32717 10.4467 13.0314
2 0.858826 4.50388 7.28067
2 7.7216 0.828837 12.9598
2 1.58048 7.73751 6.83677
2 8.03962 10.5387 -0.00884238
2 9.04811 5.2959 8.28098
2 4.29941 0.989966 13.0043
2 10.4241 6.92472 3.79899
2 6.73183 10.1696 11.5506
2 1.71657 6.35714 5.12891
2 6.39608 1.12068 10.9717
2 0.482204 6.04147 9.15743
2 6.13596 1.87281 1.42987
2 10.5963 6.79953 9.01417
2 6.30452 10.7251 1.40674
2 10.4324 9.63997 8.75686
2 3.91702 10.0549 2.3028
2 1.46488 3.16282 9.86411
2 9.17664 1.85009 1.75573
2 1.65232 9.04307 8.95588
2 8.9491 10.6841 2.74489
2 10.3349 4.02193 10.2146
2 3.38813 2.2152 1.98428
2 1.26995 3.73518 4.37073
2 9.43274 1.33691 10.2263
2 10.9808 9.975 4.57546
2 4.24084 10.4522 10.0707
2 10.8387 3.85873 3.70542
2 3.02205 1.16079 11.2843
2 2.47981 9.09535 4.42803
2 9.62045 10.6227 11.3752
2 -0.0282574 10.3652 -0.0930659
2 2.32307 0.0513368 6.50448
2 0.288565 1.69524 0.14104
2 11.0671 0.726143 6.7275
2 12.5268 -0.228957 1.54448
2 0.325474 0.195475 8.0057
2 12.8197 12.2495 12.7567
2 -0.409312 0.525339 4.59648
2 11.6998 2.48333 1.73721
2 11.4025 12.0538 9.57013
2 1.24175 10.4635 2.29473
2 2.15984 0.82313 9.09065
2 1.31925 2.16879 1.92616
2 2.43955 11.2651 8.15427
2 11.2761 11.1072 1.71406
2 10.8649 1.50122 8.61413
2 2.02545 10.7863 10.5255
2 2.26072 0.768774 4.0338
2 11.7138 1.56654 11.6853
2 10.915 12.1851 4.31741
2 12.128 10.7967 11.2826
2 10.2612 1.39978 4.04993
2 0.84973 0.838982 11.3346
2 2.64867 11.7808 3.94857
1 10.5746 8.12301 7.9532
1 4.79181 10.7697 0.908373
1 0.705745 4.36828 8.92538
1 7.79603 1.0531 1.20234
1 0.560657 7.64915 8.65818
1 7.80015 11.0338 1.66619
1 10.2903 5.23349 9.06464
1 4.73416 1.31451 0.94572
1 0.843497 4.94652 5.72422
1 8.09006 0.977421 11.1798
1 11.0234 8.24459 4.73049
1 4.83405 10.6453 11.346
1 10.734 5.471 4.15949
1 4.6989 0.65027 11.4132
1 1.26079 7.83935 5.26304
1 8.13553 10.6983 11.9761
1 10.4788 10.7496 3.18105
1 2.79188 10.2113 9.31103
1 2.28096 2.33956 3.28306
1 11.0018 2.55652 10.4261
1 2.62825 10.3543 3.16135
1 11.078 10.5835 10.0091
1 10.6243 2.43408 2.9261
1 1.72139 1.44957 10.253
1 0.021732 1.38299 1.56503
1 11.8229 0.180659 8.26467
1 -0.00819367 11.2361 1.49327
1 1.91585 12.7656 7.90785
1 0.612086 11.0063 11.9247
1 1.35062 0.0183613 4.94618
1 12.7981 0.969548 12.5206
1 10.9724 0.636757 5.24763
96
 Atoms. Timestep: 4000
2 0.140495 7.89377 4.75592
2 4.99385 12.5087 11.9047
2 12.8565 3.9766 5.39567
2 8.32052 -0.250426 11.47
2 12.5153 4.82411 7.99125
2 7.37726 12.8453 1.04877
2 12.5255 8.71441 7.58979
2 4.6603 12.2884 1.79582
2 10.5555 8.20428 6.66156
2 3.78184 10.7054 13.215
2 1.8021 4.1246 7.05714
2 8.1405 2.20326 12.8624
2 2.08786 7.80665 6.22044
2 7.90628 11.0362 13.3273
2 10.6314 5.32761 10.8328
2 4.5912 0.861531 -0.0665226
2 11.4924 6.18745 4.90876
2 6.03372 10.8314 11.41
2 1.69754 5.3991 4.83038
2 6.47472 1.87526 11.6818
2 2.13248 6.79575 8.11041
2 6.35519 1.67399 1.09648
2 11.2389 6.26822 8.98741
2 5.89646 10.8109 1.09982
2 10.5171 8.75692 9.45644
2 3.05387 10.8263 2.78083
2 1.65733 4.11997 9.78164
2 8.7629 1.92876 2.37065
2 1.84486 9.64089 8.30787
2 8.78769 10.8324 2.41498
2 10.5056 3.28502 9.03255
2 4.09649 2.03025 2.31272
2 2.85739 3.18061 4.73632
2 8.87734 2.26128 10.6402
2 10.9568 8.92253 3.70609
2 3.7157 10.075 10.7375
2 10.3089 3.69433 3.60183
2 3.07928 2.53246 11.1993
2 2.29847 8.35252 3.89309
2 8.61512 10.446 10.6644
2 0.389728 11.001 13.1723
2 2.16673 0.0324997 6.84285
2 12.0039 1.57839 13.5173
2 10.8433 0.448739 6.45589
2 0.437771 0.119432 1.55335
2 0.0164432 0.259304 7.66346
2 12.4292 12.4704 11.8341
2 -0.122371 0.0888585 5.70324
2 11.2994 2.05826 1.83342
2 11.0526 11.5874 9.07121
2 0.724947 10.0449 2.12404
2 2.48806 1.10635 9.32676
2 1.27026 2.29536 2.32382
2 1.90165 11.8629 9.15261
2 11.4742 10.7382 1.62302
2 10.4656 0.638317 9.24157
2 0.563543 10.9359 10.3391
2 1.83566 0.691386 4.05895
2 11.7948 2.18732 10.9096
2 10.8078 11.8428 4.28081
2 11.0192 10.2391 11.092
2 11.0889 1.76322 4.39875
2 0.9746 1.43117 10.7595
2 1.44761 11.1857 4.35695
1 11.1537 8.16721 8.36155
1 4.36009 10.5281 1.2932
1 1.59289 5.35392 8.62214
1 7.94207 1.5221 1.10936
1 1.26931 8.28765 7.57935
1 7.50789 11.1283 1.38319
1 11.1632 4.77862 9.25647
1 4.8421 1.01059 1.28004
1 1.7045 4.06616 5.45982
1 7.99579 1.28167 11.556
1 11.4314 8.06103 5.08971
1 4.54426 10.9924 11.8378
1 11.6682 4.82925 4.04678
1 4.71887 1.51273 11.994
1 1.62414 7.03202 4.77334
1 7.59363 11.433 11.7761
1 10.2451 10.7215 3.05891
1 2.41267 10.2347 9.83741
1 2.61825 1.97438 3.35156
1 10.3637 2.08174 9.98363
1 1.81018 9.9115 3.51062
1 9.97662 10.4011 9.95057
1 10.269 2.27658 2.99794
1 1.9661 2.36793 10.1758
1 -0.133184 1.65008 1.23383
1 11.3506 12.8765 8.08473
1 -0.132362 11.3249 1.17308
1 1.56851 0.301914 8.30844
1 12.5935 10.8094 11.6633
1 1.40564 12.7291 5.48802
1 12.6732 1.19187 11.7969
1 11.5294 0.305005 4.88279
96
 Atoms. Timestep: 6000
2 12.2679 8.53264 5.26009
2 5.17748 12.6712 11.3748
2 12.8061 5.35901 5.13428
2 8.77512 0.0831196 12.1748
2 12.2272 4.51683 7.83692
2 7.50646 -0.0488946 2.01808
2 12.7562 7.92625 8.25891
2 4.13675 12.6145 1.39638
2 10.1348 8.17138 6.52509
2 4.60465 11.2037 13.2492
2 1.35234 4.40183 5.95797
2 8.2244 1.38559 -0.0564037
2 1.07069 8.10771 6.25593
2 8.531 10.9813 0.203623
2 10.9002 3.25453 9.06747
2 3.81146 1.50992 13.1872
2 10.0285 6.50909 4.84354
2 6.99628 10.7645 11.668
2 1.40124 6.45775 4.50808
2 6.5156 2.14165 11.8862
2 1.46975 6.15432 8.12203
2 6.00295 1.84611 1.87853
2 10.2817 5.82849 8.40897
2 6.02375 10.4822 1.70045
2 10.9237 8.52602 9.83852
2 3.53083 10.272 2.10578
2 1.39462 3.50888 8.64449
2 8.5622 2.34926 2.78027
2 2.31294 9.12406 8.99843
2 8.97012 10.7413 2.57153
2 9.76327 3.9441 6.69842
2 3.31848 2.14595 2.08192
2 1.75784 3.81512 3.39252
2 9.01668 2.02537 10.6214
2 10.7469 9.80464 4.17433
2 5.02599 10.6471 10.2934
2 10.8677 3.73399 4.32339
2 3.9332 2.13891 10.5975
2 2.25686 8.76406 4.03897
2 9.67046 10.1493 11.979
2 0.429042 10.9503 13.5336
2 1.88704 -0.0682924 6.63579
2 12.2157 1.54412 13.1757
2 11.2261 11.565 6.90711
2 12.0925 -0.0896405 1.03215
2 0.313945 11.778 8.62167
2 0.116713 0.000860904 11.8511
2 -0.00143735 12.3236 4.99701
2 11.3134 2.37709 2.66279
2 10.3964 10.6696 9.54053
2 1.07155 11.1784 2.39512
2 2.16365 1.54335 8.43768
2 0.421165 2.02283 1.79806
2 2.88889 12.1167 9.02118
2 11.3987 10.6908 1.68118
2 10.5636 0.264848 9.63462
2 1.92612 10.8632 10.9024
2 1.56649 1.1892 3.88767
2 11.7076 2.02987 11.0186
2 10.5989 11.9096 3.91786
2 11.9527 10.5238 11.1053
2 10.7125 1.42642 5.34896
2 1.64943 2.61508 11.3447
2 1.84986 10.9771 4.54119
1 10.9235 7.5602 8.36332
1 4.60066 11.0912 1.24118
1 0.993337 4.5448 7.60077
1 7.70763 1.51726 1.68144
1 1.59119 7.77556 8.03505
1 7.81907 11.3491 1.91556
1 10.6931 4.28576 7.94742
1 4.48357 1.2397 1.17139
1 1.26167 4.87894 4.5433
1 8.17242 1.67781 11.9365
1 10.4723 8.50503 5.03271
1 5.2443 11.2244 11.7423
1 11.2676 5.33284 4.62212
1 4.89793 1.26465 11.7334
1 0.803786 7.89549 4.65283
1 8.45326 11.4167 12.4465
1 10.5124 10.6314 2.89728
1 3.09256 10.4196 9.74863
1 1.79259 2.38827 2.54348
1 10.3485 1.74805 10.0894
1 2.37417 10.0401 3.25543
1 10.5959 9.70456 10.8119
1 10.0483 2.39574 3.82001
1 2.40356 2.74328 9.81425
1 12.0603 1.45335 1.08807
1 11.4102 11.7467 8.63886
1 -0.28567 11.4607 1.24646
1 1.47224 -0.172606 8.20366
1 0.460973 11.1426 11.6344
1 1.72339 -0.267907 5.07471
1 0.0668294 1.93577 11.9606
1 11.1522 12.4544 5.38068
96
 Atoms. Timestep: 8000
2 12.7872 7.51873 4.7203
2 5.91324 11.9486 11.632
2 12.3296 5.03372 4.87575
2 8.61524 12.8777 11.9895
2 12.5567 4.95492 8.87703
2 7.91276 0.134659 1.92592
2 12.922 8.19613 8.60804
2 4.41049 -0.0711137 1.26964
2 10.656 8.17976 6.40336
2 4.28248 10.5921 13.5615
2 1.24984 4.02193 6.81884
2 7.64686 2.23476 0.22964
2 0.913813 7.46724 6.57276
2 8.74413 10.9756 0.428063
2 10.397 4.04597 9.68493
2 3.84034 1.2133 12.8743
2 10.561 5.87439 4.53133
2 7.06856 10.128 11.7497
2 1.47125 6.28135 4.63203
2 6.37517 1.25711 11.8341
2 2.06966 6.27067 7.7836
2 5.47686 1.90408 1.40953
2 10.6568 6.50497 8.40359
2 6.14637 10.646 1.4338
2 10.8968 8.48955 9.60726
2 3.77846 10.7661 2.80659
2 2.26795 4.18769 9.51226
2 8.33463 2.26063 2.70752
2 2.61787 9.21495 8.59028
2 8.92754 10.4665 2.51647
2 10.2801 4.48184 6.6394
2 2.75753 2.35793 1.83548
2 1.53668 3.22881 4.22954
2 9.1222 2.34755 11.5256
2 10.6115 8.77238 3.91837
2 4.19777 11.0578 10.2695
2 10.5364 3.26011 4.2092
2 3.91533 2.1882 10.3212
2 2.35987 9.11316 4.73313
2 9.92088 9.94958 11.6455
2 0.39996 10.4572 -0.165967
2 1.92737 0.447997 6.55585
2 0.180557 1.58423 13.3511
2 10.7658 0.446289 6.33134
2 12.2837 12.3905 1.73373
2 -0.169918 0.817331 8.0983
2 0.462005 12.3518 11.4393
2 12.7346 0.144021 5.12244
2 10.6049 1.74357 1.50357
2 10.8962 11.7326 8.92844
2 1.22155 10.9481 2.34457
2 2.04238 1.69617 9.43568
2 0.104755 2.24246 2.02777
2 2.15214 11.7916 8.35173
2 11.3297 10.3045 2.22986
2 10.201 1.23858 8.76409
2 1.82081 10.0071 10.8413
2 1.47254 0.975824 3.37083
2 11.794 1.93825 10.8213
2 10.0089 11.6994 4.48395
2 12.23 10.0249 10.7676
2 10.3437 1.10838 3.80527
2 1.28686 2.41449 11.2297
2 2.08893 11.4914 4.78022
1 11.1847 7.95822 8.09931
1 4.64557 11.0016 1.4718
1 1.54134 4.93229 8.37886
1 7.19649 1.54773 1.57519
1 1.7024 7.95537 8.10851
1 7.75582 11.4186 1.99358
1 11.2234 4.78369 8.21036
1 3.89258 1.43038 1.04186
1 0.956485 4.58086 5.05022
1 7.84018 1.42212 12.3092
1 11.0543 7.57578 4.85895
1 5.14147 10.644 11.7349
1 10.8236 4.42583 5.22409
1 4.70821 1.37048 11.4226
1 1.4586 7.85069 4.94641
1 8.61149 10.9607 12.3348
1 10.2083 10.3399 3.64936
1 2.68856 10.5394 9.46375
1 1.48656 2.43802 2.82226
1 10.3059 2.39184 10.3197
1 2.51817 10.3727 3.72076
1 10.6647 10.0174 10.0919
1 10.1494 2.36367 2.97038
1 2.59101 2.88157 10.0953
1 12.39 1.07914 1.23982
1 11.127 0.289567 7.76192
1 12.837 10.7223 1.38002
1 1.55896 0.256241 8.03
1 0.535457 10.7991 11.7562
1 1.4057 -0.00375298 4.76272
1 0.321868 1.28175 11.6876
1 11.1806 -0.118054 4.83529
96
 Atoms. Timestep: 10000
2 12.4646 7.37134 5.82518
2 4.59594 12.4165 11.0267
2 -0.0636391 5.56659 3.86106
2 7.42883 12.5357 12.0624
2 0.0835813 4.88936 8.56626
2 8.62516 12.0653 1.59334
2 0.0687437 7.71774 8.70059
2 4.03517 12.0779 1.24546
2 10.4993 8.17958 7.15538
2 3.73773 10.3242 12.6766
2 2.15016 4.68747 5.88274
2 8.48632 1.63829 0.0132237
2 1.48549 7.86413 7.18843
2 5.93843 10.3135 0.553546
2 10.5976 3.60805 9.19338
2 5.5559 1.03436 13.1362
2 10.2932 6.30537 4.49983
2 6.25758 10.7308 11.5207
2 1.86336 6.46077 4.54435
2 6.37974 1.93485 11.5291
2 2.00313 6.11258 8.42484
2 6.58481 0.12359 1.42534
2 10.7521 6.83965 8.61706
2 7.08986 2.0492 1.75965
2 10.6268 8.95609 9.9283
2 3.64055 10.1183 2.29278
2 1.68876 3.51291 8.54528
2 9.50749 2.16365 2.12907
2 2.54362 8.81161 9.3287
2 8.81311 9.40738 1.89194
2 9.75371 4.82965 7.30837
2 4.22912 2.23358 2.06095
2 2.59837 4.24197 3.49159
2 8.88591 2.06017 10.5593
2 10.6127 8.83627 4.17251
2 2.9489 10.8239 10.9034
2 11.1721 3.78731 3.32176
2 3.25416 1.8851 11.1631
2 2.01879 9.63167 4.8726
2 8.81485 10.2644 11.7466
2 -0.07551 10.4969 0.467509
2 1.62454 0.69141 6.07938
2 0.754758 2.04771 -0.0795684
2 10.7682 -0.0927163 6.48872
2 0.579269 -0.0784071 2.53951
2 12.2581 -0.148729 7.84596
2 0.700128 12.475 12.1031
2 12.5106 0.568797 4.52573
2 11.9716 2.36692 1.94801
2 9.94464 11.9309 9.43548
2 1.07247 10.2653 2.98047
2 1.70219 0.670439 8.90617
2 2.04554 1.6867 2.16202
2 1.36406 11.2754 8.53443
2 11.3673 9.92316 2.44623
2 10.7503 1.53493 8.43556
2 0.259971 9.92601 10.9047
2 2.3968 2.00303 4.53034
2 11.4352 1.60795 11.0434
2 10.3202 11.4967 4.69096
2 11.3676 10.9176 11.8913
2 10.3985 1.63431 4.39656
2 0.550857 2.45489 10.5574
2 2.28733 11.9298 3.93027
1 11.3838 8.37718 8.52381
1 4.14329 10.4378 0.866936
1 1.54372 4.80096 7.63062
1 8.17812 0.882363 1.57131
1 1.6698 7.63784 8.59163
1 7.62804 10.7364 1.33452
1 11.2378 4.90072 8.59301
1 5.18445 0.812865 1.44647
1 1.29306 5.05478 4.32673
1 7.9275 1.36668 11.9787
1 10.8394 7.88052 5.42097
1 4.45597 10.6538 11.3959
1 11.3171 5.09191 4.09325
1 4.70704 1.31932 11.6274
1 1.05729 7.82053 5.46116
1 7.6769 10.9312 12.4478
1 9.9753 9.20759 2.71755
1 1.89827 10.3519 9.87045
1 3.01435 2.78552 2.9535
1 10.6061 2.15229 9.84457
1 2.53184 10.3469 3.58633
1 10.28 10.6313 10.883
1 10.9014 2.32439 2.93083
1 1.96777 2.24559 9.69615
1 0.587838 1.53652 1.58885
1 10.5722 0.0770464 7.98929
1 12.6555 10.9145 2.01419
1 1.1101 0.136061 7.61934
1 0.275438 11.0801 12.3916
1 1.49325 0.530762 4.48118
1 0.0699267 1.45543 11.7556
1 10.8733 0.153268 4.86313
96
 Atoms. Timestep: 12000
2 12.3591 8.8009 5.38138
2 4.22974 12.4294 11.473
2 0.959987 5.1178 5.38209
2 7.82903 12.1481 11.8623
2 0.205143 3.82628 7.4186
2 7.61317 8.4076 1.93252
2 12.5514 7.22712 8.97034
2 5.0589 0.910261 2.69855
2 10.9369 7.5184 7.08362
2 5.15061 11.3992 0.314627
2 2.73801 4.3951 6.44697
2 7.85087 2.21742 12.6414
2 1.86233 8.59408 7.19771
2 6.46628 11.3003 2.09471
2 10.3218 2.75793 8.48595
2 4.50482 1.69321 0.11349
2 11.9582 6.63779 4.21427
2 6.20885 10.4944 12.1804
2 2.32015 6.85982 5.41467
2 6.14494 1.42619 10.6517
2 2.0674 5.98513 8.28172
2 6.81218 2.65761 1.31473
2 10.9046 5.19284 8.3352
2 7.25115 4.91473 12.8682
2 10.2578 7.98623 9.93206
2 3.42969 11.5811 2.99587
2 2.29205 3.16404 8.63088
2 8.8871 3.33253 1.83628
2 1.80827 8.31837 9.73697
2 9.02489 10.1689 2.32309
2 11.4709 4.77501 6.09139
2 3.63282 2.33929 2.36458
2 2.77356 4.34279 3.78208
2 8.91483 1.42465 10.0518
2 9.79949 8.4813 4.02874
2 3.33869 10.3289 11.9675
2 10.9505 4.25102 3.33837
2 3.78739 1.91125 10.5138
2 2.16845 9.30201 4.05558
2 8.55779 9.73547 11.4334
2 12.0966 11.4814 13.2797
2 2.0456 0.207182 6.7348
2 12.3888 1.88448 -0.212861
2 10.8073 12.3537 6.75434
2 12.3289 0.041643 1.84822
2 -0.136284 11.7957 8.56332
2 12.2629 -0.0993676 11.0918
2 -0.0134627 0.440405 5.24416
2 10.91 2.14373 1.66908
2 9.84967 10.4373 8.66967
2 0.649243 10.2311 2.59781
2 2.17255 0.2682 9.14657
2 0.701628 2.35888 2.41562
2 2.2048 10.6038 8.93538
2 11.2532 9.53365 1.28586
2 10.9222 0.0775584 9.04864
2 1.20096 10.9678 11.2952
2 2.16347 1.58288 3.76772
2 10.777 1.79154 10.8751
2 11.4571 1.99138 6.80121
2 10.6716 10.3268 11.1267
2 10.6861 1.35042 4.28499
2 0.463374 2.22291 10.5665
2 1.81649 12.274 3.96601
1 10.9957 7.05657 8.62795
1 4.73444 11.7277 2.03746
1 1.84472 4.57649 7.96914
1 7.89461 3.61019 0.192
1 1.32297 7.5738 8.42992
1 7.48975 10.1352 2.17336
1 11.3057 3.64331 7.42157
1 5.20576 2.18653 1.50493
1 2.73474 5.23839 5.05827
1 7.77053 1.12735 11.3844
1 10.9714 7.87319 5.1172
1 4.66587 11.0578 12.0967
1 12.2281 5.07473 4.34175
1 4.66351 1.18986 11.5105
1 1.55956 8.27718 5.57347
1 7.59031 10.6128 12.2662
1 10.3042 9.09996 2.48785
1 2.39463 9.67594 10.5692
1 2.34443 3.12742 2.99315
1 10.319 1.66031 9.47276
1 2.26544 10.6369 3.1438
1 9.66804 9.63386 9.96176
1 9.85876 2.80806 3.13229
1 2.23091 1.86405 9.56725
1 12.3576 1.64909 1.36047
1 11.123 11.5583 8.06909
1 12.2045 11.0584 1.52247
1 1.64192 11.9221 8.15134
1 12.1771 11.1958 11.5353
1 1.87498 0.633093 5.06812
1 12.1428 1.39205 11.6336
1 11.2441 0.745794 5.76251
96
 Atoms. Timestep: 14000
2 12.1136 7.69976 4.45951
2 4.84891 12.5536 11.6599
2 11.8811 4.40132 4.31
2 7.55802 12.2337 11.8767
2 12.9158 5.36775 9.02534
2 8.67921 9.28611 12.9079
2 0.520815 8.31637 7.99662
2 4.92245 11.9106 2.1204
2 10.9165 7.81616 6.547
2 5.17015 10.8972 0.111454
2 0.479514 4.83655 6.66912
2 7.90371 0.648576 0.195833
2 2.08065 7.52669 5.83415
2 6.25338 9.58901 1.63095
2 9.99862 4.02746 9.37569
2 4.35409 0.662047 0.681286
2 10.1115 6.10509 5.10226
2 6.14837 10.157 11.3468
2 1.36706 5.42666 4.52279
2 5.77525 1.41055 12.5124
2 2.335 6.29867 7.67516
2 6.63894 0.412332 2.43145
2 11.0202 6.67294 8.50713
2 9.11259 12.0172 2.43646
2 10.6749 9.4278 9.06392
2 3.24976 10.4265 2.37339
2 2.22112 3.49764 8.56966
2 8.52916 2.15642 1.66371
2 2.78424 8.74691 8.8699
2 8.37939 10.0312 2.45677
2 10.4161 4.36051 6.63873
2 4.2664 2.17264 2.74169
2 2.02126 3.56057 4.33331
2 8.38584 2.09582 11.0324
2 9.70327 9.17682 4.52154
2 3.78674 10.1513 10.4948
2 9.83946 3.23223 4.08684
2 3.1656 2.22085 11.5878
2 1.49969 8.62272 3.45026
2 9.65033 11.3339 11.1674
2 -0.218141 11.2539 0.622589
2 1.57375 0.375759 6.56579
2 0.282103 2.14503 12.5059
2 11.1928 1.11256 6.33956
2 12.6307 0.664687 1.451
2 12.5571 -0.13191 8.56802
2 0.711225 0.207073 11.8869
2 0.584676 0.435469 4.57838
2 11.3134 2.80094 1.74132
2 10.3555 12.0064 9.12629
2 0.674389 10.8871 3.19423
2 2.34972 1.17479 9.30797
2 1.23139 2.05441 1.91001
2 2.31884 10.9739 8.61485
2 10.7471 10.9766 2.8979
2 9.77877 1.32555 8.97634
2 1.27171 10.3593 10.9784
2 2.24051 1.42536 3.85882
2 11.5431 2.27885 10.6777
2 12.632 2.33523 4.92623
2 11.8084 11.1262 11.1043
2 10.5619 1.08795 3.35006
2 1.5773 2.92951 10.6742
2 2.13244 11.6881 4.36406
1 11.4249 8.27147 8.19373
1 4.83573 10.3426 1.72056
1 1.51168 4.8083 8.23902
1 8.05546 0.46617 1.68206
1 2.06545 7.94738 7.578
1 7.98579 9.0521 1.29673
1 11.0484 4.87966 8.55243
1 5.09852 0.874533 2.05012
1 0.571142 4.01551 4.96212
1 7.38082 1.17465 12.0861
1 10.7208 8.04766 4.94005
1 4.8165 11.0068 11.553
1 10.4963 4.41657 5.10626
1 4.19223 1.26437 12.4015
1 1.00081 7.26059 4.48078
1 8.12246 10.6135 11.6713
1 9.4144 10.9137 3.47114
1 2.4317 9.83907 9.92931
1 2.46842 2.84489 2.72373
1 9.69128 2.48093 10.1183
1 2.00494 10.2037 3.58555
1 10.9331 10.793 9.99498
1 9.84307 2.44368 2.54939
1 3.06392 2.7849 9.67575
1 -0.10331 2.23235 0.877009
1 10.9968 0.410321 7.90415
1 12.1965 11.4907 2.28364
1 1.63874 12.6231 8.19162
1 0.454101 11.2912 12.124
1 1.99531 0.31447 5.03105
1 0.422917 1.70455 11.0899
1 11.5766 1.06231 4.67189
96
 Atoms. Timestep: 16000
2 12.2342 8.25476 4.99924
2 4.85341 12.4703 11.5379
2 12.2735 5.24964 5.62876
2 8.1917 12.8429 11.349
2 12.0503 3.67862 8.24826
2 7.28195 10.6382 12.9085
2 11.9997 6.925 8.29607
2 3.95236 12.2654 1.16761
2 10.6206 8.69195 7.15475
2 4.61201 10.2395 13.0835
2 1.2584 4.14987 6.86138
2 8.08213 1.13328 0.0943052
2 0.314624 7.58108 6.75626
2 5.33892 10.1703 1.50412
2 11.7586 3.80328 10.7801
2 4.87628 1.50387 12.8181
2 10.0113 6.88098 5.35009
2 6.37141 10.6587 11.1188
2 1.31454 6.01033 5.37758
2 6.63793 1.63821 11.2198
2 0.846499 5.74904 8.99208
2 6.00685 1.07389 1.47684
2 10.0192 6.08629 8.58455
2 8.50971 12.4934 2.56086
2 10.9044 8.78298 9.80582
2 2.78843 9.83109 1.90292
2 2.18671 3.51737 8.63726
2 9.05208 2.32696 2.33324
2 1.91383 8.36683 9.21253
2 8.05841 10.1546 2.09968
2 10.2487 4.03109 6.72445
2 4.11487 2.05005 2.17047
2 1.88214 4.14409 4.23821
2 9.71696 2.24341 11.6639
2 9.90606 10.0549 4.52555
2 3.71242 10.0665 10.4601
2 10.5425 3.93031 4.17078
2 3.8009 1.08956 9.85039
2 1.09576 8.5066 3.94142
2 9.05818 10.5739 10.4183
2 12.7854 10.981 13.2756
2 2.23178 11.9553 6.61844
2 1.16979 2.09153 13.1632
2 12.2368 0.742977 6.84586
2 -0.0776838 0.166758 1.04798
2 13.0412 12.6252 8.35391
2 0.838024 12.5454 11.4383
2 0.782698 0.560831 5.05372
2 11.9922 2.35545 1.73833
2 10.3797 11.7371 8.8455
2 0.32702 10.4189 2.65317
2 1.72313 0.860814 8.36544
2 1.58238 3.24011 2.10559
2 1.81621 11.1345 9.20063
2 10.455 11.3217 1.90616
2 11.5337 1.05302 9.6025
2 1.21698 9.81987 11.4168
2 2.73432 1.77467 4.3525
2 12.6422 1.96053 11.5563
2 12.6815 3.29095 5.64696
2 11.4448 10.8369 11.3671
2 11.7541 2.33272 3.97094
2 1.75147 2.16079 10.3367
2 1.95464 11.6024 4.19017
1 10.5457 7.55983 8.26322
1 3.99994 10.5456 0.914983
1 0.763294 4.19787 8.5263
1 7.76 0.909811 1.57483
1 1.02622 7.43929 8.32324
1 6.94027 10.4702 1.00473
1 10.5127 4.38027 8.48164
1 4.46585 0.876719 0.940699
1 0.792789 4.44845 5.33174
1 8.13802 1.51833 12.0395
1 10.6268 8.74915 5.58424
1 4.77226 10.9625 11.3558
1 10.6861 5.11007 5.37277
1 5.07206 1.02201 11.1769
1 0.78254 7.40054 5.1379
1 7.92956 11.3089 11.5104
1 9.22129 10.8774 2.74373
1 2.11998 9.78003 10.0973
1 2.81997 2.94102 3.30746
1 11.1962 2.31452 10.7718
1 1.77344 10.1547 3.46699
1 10.482 10.3765 9.9457
1 10.7087 2.77524 2.60523
1 2.76633 1.91346 9.07935
1 0.446915 2.21134 1.10606
1 11.3646 -0.152091 8.01086
1 12.0978 11.4919 1.2282
1 1.51958 12.2635 8.0505
1 0.1201 11.0985 11.6438
1 2.39947 -0.0633636 5.169
1 1.30079 1.07273 11.8595
1 12.4271 1.60475 5.35696
96
 Atoms. Timestep: 18000
2 12.1953 8.92309 4.61573
2 4.90491 12.3696 11.7311
2 0.215105 4.60893 5.06346
2 8.08716 11.4881 12.7571
2 12.6293 4.47581 8.28012
2 8.06333 9.48301 0.112077
2 12.1877 7.5688 7.45452
2 4.91946 12.0942 2.04139
2 9.9513 8.19664 6.11902
2 4.32052 11.0412 0.171192
2 1.68198 4.83395 6.62184
2 8.62358 1.05823 0.0368005
2 1.84255 8.58393 6.67533
2 5.8449 9.51732 2.04812
2 10.2636 3.18816 9.0299
2 5.40186 1.33474 -0.0701861
2 11.1346 6.58727 4.11136
2 5.40184 9.98473 12.1563
2 1.28334 6.71443 4.90796
2 6.58193 1.03335 11.2993
2 1.47937 6.28369 8.10718
2 6.95322 1.37364 1.94283
2 10.0908 5.87266 8.35801
2 9.06919 12.383 2.763
2 10.3212 8.86907 8.90754
2 3.43286 10.0432 2.35347
2 2.44231 3.70825 9.06906
2 9.09942 2.28347 2.42875
2 1.8231 8.92916 9.23717
2 8.47868 9.87777 2.42898
2 10.4684 4.68044 6.29267
2 4.517 2.26573 1.91095
2 3.29343 3.96366 4.16965
2 9.03035 1.37158 10.6735
2 9.59121 9.86442 4.32197
2 3.1181 10.3882 11.4072
2 10.5643 4.20785 3.7994
2 3.80368 1.77582 10.3454
2 1.46105 9.70161 4.0924
2 8.50825 9.23686 11.4166
2 12.2246 11.2952 13.2059
2 1.66591 12.4685 5.93729
2 -0.38127 1.852 0.0196755
2 11.3963 -0.00573438 6.82074
2 12.6915 0.797799 1.68366
2 0.377781 11.5854 7.67515
2 11.8816 0.408543 11.5095
2 -0.193182 0.970037 5.23667
2 11.555 3.46484 1.99321
2 11.6961 11.5053 9.70709
2 0.625329 11.1874 2.21571
2 2.09251 0.801863 8.6742
2 1.85362 2.21752 2.20972
2 2.62605 11.034 8.56804
2 10.9296 11.117 2.19279
2 10.2831 0.330332 8.40122
2 1.08579 11.3901 11.1619
2 2.80281 1.55975 4.088
2 11.5905 2.24989 10.6303
2 11.7037 3.08275 7.13457
2 11.032 10.2188 11.3107
2 10.636 1.81461 4.36983
2 1.54075 1.92803 11.2605
2 2.21751 11.9008 3.6389
1 10.5624 7.57365 7.79185
1 4.78648 10.4916 1.53326
1 1.49794 4.69611 8.34043
1 8.45711 0.972391 1.75477
1 1.1714 7.83468 8.08539
1 7.6167 8.91403 1.63821
1 10.8206 4.2478 7.87958
1 5.42479 0.966733 1.65142
1 2.08629 5.00807 4.93852
1 8.24917 0.431301 11.8574
1 10.5748 8.17382 4.6345
1 4.09682 11.1326 12.0759
1 11.2887 5.15634 4.90171
1 4.87459 1.25221 11.5516
1 1.0877 8.45948 5.13721
1 7.2938 10.0895 12.1792
1 9.40704 10.9519 3.07174
1 2.00933 10.444 10.1231
1 3.32927 2.64758 3.10285
1 10.2773 1.50373 9.61214
1 2.01979 10.5127 2.93723
1 9.90238 9.47182 10.3716
1 10.375 2.89501 2.9419
1 2.29274 2.0719 9.75115
1 0.1942 2.46028 1.44767
1 11.6431 11.9714 8.21509
1 12.2736 11.8817 1.33537
1 1.98379 12.2247 7.56238
1 12.0867 11.4696 11.4513
1 1.63709 0.523558 4.38735
1 -0.0987939 1.85488 11.8701
1 11.4062 1.73496 6.00432
96
 Atoms. Timestep: 20000
2 11.851 8.15975 5.17448
2 5.3583 0.185551 11.3193
2 0.303005 5.31089 4.80914
2 8.2313 11.4041 11.641
2 -0.182331 4.19059 7.37436
2 6.63486 9.53621 0.131641
2 11.6581 8.23676 8.83295
2 4.80761 12.1266 1.8296
2 9.90202 8.37904 7.04261
2 3.93279 11.4465 12.9151
2 2.23541 4.92814 6.82725
2 8.44244 -0.27234 0.49686
2 1.26106 8.26451 6.98414
2 5.54335 10.0168 1.85052
2 10.6348 3.35513 9.5432
2 5.1185 1.32046 13.2676
2 10.4245 6.68362 4.57987
2 6.00843 10.6195 11.1717
2 1.72896 6.77544 5.20858
2 7.48687 1.08061 12.1946
2 0.41893 6.4423 8.46064
2 6.72616 1.30737 1.88373
2 10.7821 5.72589 7.88419
2 8.34324 11.8614 2.92023
2 9.76865 7.15533 10.0242
2 2.92774 10.2638 1.71531
2 2.18913 4.38153 8.94035
2 9.23923 2.02523 1.95755
2 1.74327 9.26835 9.05682
2 8.28996 9.34406 2.0715
2 10.4251 4.90164 5.75418
2 4.28522 2.46514 2.25835
2 2.95642 4.24379 4.05365
2 9.74341 0.578822 10.8454
2 9.54313 9.64729 4.62311
2 3.631 11.2787 10.1119
2 10.1417 4.18583 2.86346
2 5.91558 3.00841 10.9762
2 1.47514 8.92539 4.10243
2 8.51363 8.7989 11.6805
2 11.4438 11.1306 12.6548
2 2.17504 0.799746 6.53398
2 1.03403 1.13738 12.9491
2 10.9626 0.868619 6.98289
2 0.0814367 -0.234871 1.67885
2 0.557661 1.32515 9.54689
2 0.0922751 12.2975 11.5837
2 12.6234 0.629472 4.71475
2 12.1791 2.27986 1.64417
2 11.2335 11.5608 9.75212
2 0.560767 10.5322 2.13228
2 3.22329 1.90208 8.498
2 1.86054 2.47805 1.65538
2 1.86717 12.1414 8.83271
2 10.3306 11.1467 2.09617
2 10.6246 1.32119 9.11257
2 1.01905 10.7007 10.7539
2 2.64366 1.62564 3.75934
2 12.1533 2.10547 11.3531
2 10.7611 2.77485 6.16886
2 10.7979 9.67023 10.6981
2 11.2603 2.385 4.10177
2 2.25697 2.61822 10.9488
2 2.13602 11.7868 4.19482
1 10.3058 7.34199 8.22122
1 4.25623 10.7711 1.1858
1 1.11082 5.05262 7.95648
1 8.35039 0.503306 1.99867
1 0.499853 8.12914 8.5151
1 6.97215 8.67813 1.54648
1 10.904 4.03253 7.58028
1 5.25114 1.09166 1.48387
1 2.10244 5.02225 5.13543
1 8.80935 0.170624 12.2998
1 10.2174 8.11518 5.39017
1 4.49857 11.4056 11.3361
1 11.1348 5.15522 4.25963
1 5.9138 1.48556 11.9943
1 0.828932 8.15705 5.37168
1 7.31405 9.89689 12.0717
1 9.20477 10.5928 3.05487
1 2.21918 10.7102 9.59691
1 2.9412 3.16275 3.08214
1 10.6054 1.99362 10.5686
1 1.88067 10.3305 3.34987
1 9.94382 8.17171 11.148
1 10.6909 2.67578 2.3303
1 3.43271 3.12706 9.62427
1 0.745963 1.17589 1.30479
1 10.5729 12.6593 8.32066
1 11.8759 11.1941 1.21674
1 1.84789 1.07263 8.25262
1 11.9613 10.8742 11.0854
1 1.6677 0.685187 4.97617
1 0.958458 1.18406 11.3603
1 11.2064 1.29945 5.18373
96
 Atoms. Timestep: 22000
2 12.2163 7.4754 5.5986
2 4.3816 12.3716 11.4185
2 0.44158 4.81907 4.54389
2 8.16024 11.8195 11.5676
2 0.511889 4.59103 7.97747
2 7.95829 10.7683 0.171663
2 12.7454 7.75428 8.65897
2 4.5341 12.0076 2.36338
2 10.1456 8.32533 6.74987
2 4.15108 11.0564 0.433122
2 2.37929 5.13105 6.59023
2 8.78661 1.45715 13.2505
2 1.80545 8.14559 6.77938
2 5.83061 9.99277 1.77608
2 10.8422 3.08512 9.11419
2 4.53983 0.909001 0.00730974
2 10.5447 5.97787 5.33371
2 5.91236 10.0241 11.7741
2 1.61294 6.4459 4.65829
2 6.48414 0.689824 12.2563
2 1.63651 6.24334 8.81606
2 6.3882 1.5343 2.16535
2 11.4296 5.99973 8.4095
2 7.86746 12.3468 1.77232
2 10.7075 7.96814 9.74822
2 3.12009 9.40965 2.49184
2 2.88073 4.44293 9.27212
2 8.76181 2.52458 2.69463
2 2.52484 9.16774 9.13537
2 8.96029 10.4429 2.76189
2 11.7698 3.60313 6.46945
2 4.31945 1.70697 2.3282
2 3.01512 4.03673 3.8129
2 9.03151 1.89677 10.5939
2 10.0764 9.40463 4.79881
2 3.47849 10.3153 11.1311
2 11.4415 3.75951 3.52142
2 4.26633 2.48192 10.581
2 0.849666 8.87868 3.98261
2 8.88571 9.94579 10.8768
2 0.0796581 11.2489 13.0237
2 1.95287 0.868531 6.2419
2 12.48 1.87505 12.5372
2 8.89217 12.4575 5.08614
2 0.0381788 -0.00191844 1.29537
2 0.601372 1.05369 9.04943
2 0.403701 0.259319 11.1079
2 12.6723 0.341288 6.0066
2 11.5561 1.74248 2.28766
2 6.64331 12.1379 6.72757
2 0.466918 10.5537 2.36813
2 2.99574 1.97731 9.01987
2 1.47533 2.15317 1.70511
2 2.90522 12.2074 8.43966
2 11.0666 10.897 2.75849
2 9.15063 0.869998 7.5565
2 1.7152 11.3716 10.4479
2 2.41001 1.29906 4.14106
2 11.2233 1.36563 10.269
2 11.1937 1.49086 7.74016
2 12.0801 10.3296 10.657
2 10.452 1.13777 4.77686
2 1.75492 2.55152 11.0089
2 2.08256 11.5401 3.44079
1 10.9665 7.77038 8.29502
1 4.26991 10.4627 1.87838
1 1.98493 4.97461 8.10984
1 7.96165 1.40237 1.66432
1 1.59442 7.90223 8.31771
1 7.59803 10.5526 1.86365
1 11.5137 4.20182 8.04331
1 5.06604 0.488704 1.58068
1 1.90332 5.03216 5.04006
1 8.05772 0.855679 11.8867
1 10.6552 7.97948 5.31966
1 4.50878 10.601 12.2551
1 11.5719 4.71808 5.08784
1 4.85803 1.17623 11.8213
1 1.11706 7.87271 5.32775
1 7.64225 10.4288 12.0825
1 9.57522 10.9988 4.23923
1 2.93455 10.9304 9.49354
1 2.68102 2.31492 2.99289
1 10.1287 1.55263 8.96941
1 1.68665 10.0279 3.11351
1 10.5193 9.28857 10.7195
1 10.3809 2.74765 3.00017
1 3.0227 3.1516 10.1904
1 0.154168 1.62364 0.681916
1 8.27778 12.4451 6.60434
1 12.2667 11.204 1.08979
1 2.03135 0.958832 8.20634