96
 Atoms. Timestep: 0
2 0 7.95642 4.74695
2 4.63304 0 11.358
2 0 4.63304 4.74695
2 7.95642 0 11.358
2 0 4.63304 8.47514
2 7.95642 0 1.8641
2 0 7.95642 8.47514
2 4.63304 0 1.8641
2 10.7421 8.43088 6.61105
2 4.15858 10.7421 0
2 1.84736 4.15858 6.61105
2 8.43088 1.84736 0
2 1.84736 8.43088 6.61105
2 8.43088 10.7421 0
2 10.7421 4.15858 6.61105
2 4.15858 1.84736 0
2 10.5201 6.29473 5.04003
2 6.29473 10.5201 11.6511
2 2.06934 6.29473 5.04003
2 6.29473 2.06934 11.6511
2 2.06934 6.29473 8.18207
2 6.29473 2.06934 1.57102
2 10.5201 6.29473 8.18207
2 6.29473 10.5201 1.57102
2 10.1594 8.65935 9.20274
2 3.93011 10.1594 2.59169
2 2.43004 3.93011 9.20274
2 8.65935 2.43004 2.59169
2 2.43004 8.65935 9.20274
2 8.65935 10.1594 2.59169
2 10.1594 3.93011 9.20274
2 3.93011 2.43004 2.59169
2 2.43004 3.93011 4.01936
2 8.65935 2.43004 10.6304
2 10.1594 8.65935 4.01936
2 3.93011 10.1594 10.6304
2 10.1594 3.93011 4.01936
2 3.93011 2.43004 10.6304
2 2.43004 8.65935 4.01936
2 8.65935 10.1594 10.6304
2 0 10.703 0
2 1.88643 0 6.61105
2 0 1.88643 0
2 10.703 0 6.61105
2 0 0 1.872
2 0 0 8.48305
2 0 0 11.3501
2 0 0 4.73905
2 11.2706 2.31295 2.18973
2 10.2765 11.2706 8.80078
2 1.31887 10.2765 2.18973
2 2.31295 1.31887 8.80078
2 1.31887 2.31295 2.18973
2 2.31295 11.2706 8.80078
2 11.2706 10.2765 2.18973
2 10.2765 1.31887 8.80078
2 1.31887 10.2765 11.0324
2 2.31295 1.31887 4.42131
2 11.2706 2.31295 11.0324
2 10.2765 11.2706 4.42131
2 11.2706 10.2765 11.0324
2 10.2765 1.31887 4.42131
2 1.31887 2.31295 11.0324
2 2.31295 11.2706 4.42131
1 11.0086 7.83654 8.10972
1 4.75292 11.0086 1.49867
1 1.5809 4.75292 8.10972
1 7.83654 1.5809 1.49867
1 1.5809 7.83654 8.10972
1 7.83654 11.0086 1.49867
1 11.0086 4.75292 8.10972
1 4.75292 1.5809 1.49867
1 1.5809 4.75292 5.11238
1 7.83654 1.5809 11.7234
1 11.0086 7.83654 5.11238
1 4.75292 11.0086 11.7234
1 11.0086 4.75292 5.11238
1 4.75292 1.5809 11.7234
1 1.5809 7.83654 5.11238
1 7.83654 11.0086 11.7234
1 10.1088 10.1088 3.30552
1 2.48067 10.1088 9.91657
1 2.48067 2.48067 3.30552
1 10.1088 2.48067 9.91657
1 2.48067 10.1088 3.30552
1 10.1088 10.1088 9.91657
1 10.1088 2.48067 3.30552
1 2.48067 2.48067 9.91657
1 0 1.60471 1.57853
1 10.9848 0 8.18958
1 0 10.9848 1.57853
1 1.60471 0 8.18958
1 0 10.9848 11.6436
1 1.60471 0 5.03252
1 0 1.60471 11.6436
1 10.9848 0 5.03252
96
 Atoms. Timestep: 2000
2 -0.0635898 8.18666 4.39999
2 5.17008 0.555372 11.4691
2 0.237537 4.32236 4.5383
2 7.5839 0.73147 11.2606
2 -0.011963 4.68241 8.37381
2 8.11868 0.150312 1.56476
2 0.559153 7.80093 8.74347
2 4.73304 12.5514 1.58285
2 11.5857 7.77217 6.77666
2 4.7217 11.1603 13.2984
2 2.01272 3.8904 7.08191
2 8.2259 2.19556 13.182
2 2.37336 8.13602 7.02914
2 8.04117 11.4514 12.8386
2 10.8533 4.75437 6.52857
2 4.16216 2.20894 13.1389
2 11.5465 6.39456 4.53938
2 6.35176 11.2773 11.1755
2 1.79993 6.45811 5.70775
2 6.14432 2.93846 11.4231
2 2.67194 5.59763 8.58648
2 6.02735 1.73317 0.600621
2 11.147 6.17665 8.60597
2 6.57183 10.803 1.73404
2 10.9703 9.3106 9.31514
2 3.68909 9.62027 2.04176
2 1.40903 2.61506 9.40504
2 7.67594 2.70836 2.58837
2 3.15092 8.92158 9.18977
2 8.91749 10.5415 2.03428
2 10.7395 3.4919 9.27512
2 3.51486 1.63988 2.54115
2 2.67114 3.55756 4.41949
2 9.22681 2.59335 11.4903
2 9.51238 8.36793 4.08164
2 3.9582 11.2545 10.7242
2 10.2503 3.79146 4.2897
2 3.4984 1.25131 9.97383
2 2.17997 8.55815 3.94848
2 9.22285 11.0423 10.6269
2 11.896 10.041 0.121573
2 0.827258 11.526 6.0421
2 12.2146 1.48736 0.441169
2 10.7707 0.963871 6.14976
2 12.0082 12.5096 2.11653
2 12.6292 -0.175357 7.58796
2 0.655608 12.2853 13.1544
2 12.1594 12.5015 4.97069
2 11.2843 2.21685 2.26118
2 10.867 12.0561 8.48734
2 0.560143 10.2842 1.85666
2 1.11212 -0.0284599 9.0972
2 1.19398 1.62601 2.27788
2 2.37019 10.9446 8.61692
2 11.1602 10.2783 3.39644
2 11.2013 1.45427 9.3255
2 1.75533 11.2806 11.0103
2 1.66804 0.811828 4.30493
2 11.8278 1.45153 11.6501
2 9.82895 11.3448 4.43372
2 11.9334 11.1219 10.4701
2 9.97149 1.35535 3.92888
2 1.52387 1.66993 11.6098
2 1.44979 10.6486 3.99636
1 11.8454 7.83296 8.59537
1 4.87995 10.7789 1.50691
1 1.65441 4.28641 8.70096
1 7.48468 1.79775 1.25141
1 2.54931 7.39472 8.49618
1 8.01474 11.4857 1.14094
1 11.361 4.83095 8.10575
1 4.40026 1.50838 1.12538
1 1.79567 4.84612 5.25022
1 7.64183 2.31021 11.5496
1 11.0444 7.82536 5.14201
1 4.88134 11.6717 11.7105
1 11.4629 4.85086 4.91093
1 4.61898 2.2248 11.386
1 1.47105 8.12023 5.27948
1 7.91685 11.9054 11.2839
1 9.45674 10.0618 3.58963
1 2.58962 10.3581 10.0325
1 2.27363 2.13649 3.38495
1 11.1278 2.4116 10.6041
1 2.13495 9.66321 2.75431
1 10.4412 10.8955 9.55453
1 9.50034 2.95378 3.12502
1 1.86263 1.26859 9.97943
1 12.5118 1.20196 1.94566
1 11.3018 1.02697 7.55774
1 11.7884 10.8187 1.72426
1 1.1063 11.7645 7.82489
1 -0.0046119 10.9976 11.9093
1 0.668211 11.8084 4.42783
1 0.334388 1.576 12.5779
1 10.6566 -0.0357542 4.63112
96
 Atoms. Timestep: 4000
2 0.110277 7.86085 5.84343
2 4.25704 -0.0528803 12.5657
2 -0.074675 4.55386 4.07067
2 7.64343 12.7604 12.2518
2 12.4416 5.07968 8.13394
2 8.29142 12.399 1.35113
2 0.491594 7.54652 8.95588
2 4.57904 12.2944 2.22166
2 11.5808 7.30515 6.99374
2 4.67232 10.7205 0.129144
2 1.26603 4.76123 6.78605
2 7.56157 1.71068 13.0164
2 1.89293 8.55088 7.38171
2 7.94199 10.3548 13.3176
2 10.4399 4.54801 5.60438
2 4.39611 2.57937 12.8223
2 11.4283 6.09589 4.39502
2 6.33233 10.5251 11.3435
2 1.77026 6.75281 4.79429
2 5.91131 1.22397 10.5896
2 2.47003 5.76037 8.73386
2 5.85913 1.82171 1.07437
2 10.7796 6.87542 9.00605
2 6.41604 10.4194 1.91069
2 11.3492 9.57446 8.80251
2 3.63919 9.99859 2.62506
2 0.896017 3.58869 9.44894
2 8.88664 1.734 2.04595
2 2.09606 9.09211 9.82186
2 9.40613 9.91876 1.67681
2 10.3002 3.86604 9.52929
2 4.23907 2.99453 2.7655
2 2.41318 3.7959 4.55163
2 8.80694 1.49108 10.5189
2 10.6512 8.44226 3.79785
2 3.17929 10.8324 11.7102
2 8.08217 2.17551 4.39159
2 3.3815 2.35415 10.5665
2 1.64217 9.22454 4.85376
2 8.99603 10.9526 10.4463
2 11.9534 11.0807 13.3622
2 2.21559 12.7169 6.23497
2 0.151314 2.3931 -0.12736
2 10.9465 -0.344952 6.30646
2 0.145036 0.378978 1.7548
2 -0.134462 12.2365 7.93582
2 11.9315 0.29727 11.9394
2 -0.0546949 0.0151108 4.60441
2 11.0491 2.59619 4.2196
2 10.7782 11.624 8.92223
2 1.2513 10.3669 1.76963
2 1.73818 1.06443 8.11824
2 1.86334 2.41077 1.86638
2 2.51866 11.9253 9.50202
2 11.4796 10.5764 1.81895
2 11.3215 1.66031 9.01932
2 0.487267 11.1617 10.7848
2 2.14082 1.13419 3.71317
2 11.29 2.58067 11.4265
2 11.4398 10.5249 3.91312
2 11.1193 10.5583 11.3159
2 9.89824 0.303855 4.3036
2 0.957858 1.40801 10.9763
2 2.15645 11.4249 3.88113
1 11.9794 8.0793 8.38272
1 4.83539 10.6316 1.68354
1 0.946087 5.01876 8.25479
1 7.37764 1.16481 0.630715
1 2.05418 7.64637 8.87348
1 8.19052 10.7059 1.17848
1 11.0597 5.26764 8.89797
1 4.76107 3.06323 0.986272
1 1.30221 4.8999 4.88396
1 7.41839 1.12527 11.2634
1 11.5492 7.47357 5.42651
1 4.77904 11.0029 12.0009
1 11.355 4.40719 4.44821
1 4.39052 1.536 11.5842
1 1.72215 8.08487 5.89979
1 7.96671 11.0007 11.8714
1 10.5377 9.74966 2.72958
1 2.14468 10.7675 10.4839
1 2.72131 2.60906 3.32549
1 10.3344 2.3134 10.1177
1 1.82238 9.99451 3.26014
1 10.3497 10.2847 9.73616
1 9.14171 1.52049 3.5392
1 1.77311 1.9905 9.69949
1 0.811166 1.68189 1.14058
1 11.4135 0.174872 8.01892
1 -0.0288667 11.3925 1.30828
1 1.88142 12.3861 7.78742
1 12.4541 11.6149 11.7418
1 1.73244 -0.217083 4.68367
1 12.4414 1.8003 11.9378
1 11.2688 12.4226 4.82231
96
 Atoms. Timestep: 6000
2 -0.0970385 7.26386 5.39562
2 4.73691 3.40623 11.8083
2 -0.047536 5.11921 4.48609
2 8.05026 12.8494 12.6162
2 12.5933 4.64728 8.66662
2 9.05633 12.3448 1.34448
2 12.7156 8.01468 8.43081
2 4.3328 0.380903 2.01849
2 10.7579 7.78058 6.24381
2 4.72037 11.6868 13.59
2 0.895491 4.36614 6.7296
2 8.22026 1.40581 0.497329
2 1.50299 8.30304 7.3336
2 7.73698 11.2555 0.0218092
2 12.6693 3.60361 2.86865
2 4.05766 2.25245 -0.222959
2 10.9069 5.54522 4.65728
2 6.56605 10.3686 11.9765
2 2.29781 5.72329 6.10646
2 5.96256 1.79671 12.4544
2 1.47176 6.41999 8.86469
2 9.22892 1.11154 2.9709
2 10.8635 6.49568 8.01458
2 6.12324 11.6611 2.16144
2 10.4785 9.21167 9.18005
2 3.16636 10.7199 2.0577
2 2.04295 3.70835 9.02504
2 11.0195 1.30334 1.08114
2 1.88396 9.35346 9.56768
2 8.61459 10.3747 2.76788
2 9.67408 4.44345 9.79988
2 2.62835 2.59867 2.04336
2 1.86028 3.77068 3.51907
2 8.007 2.83074 11.7998
2 11.1449 8.5945 3.37827
2 4.17037 10.2748 11.0282
2 8.88978 1.76648 5.53485
2 3.01218 2.03007 11.1557
2 1.77608 9.63651 4.60798
2 9.32879 10.4842 11.3744
2 0.572437 10.5083 12.5906
2 2.01102 12.5677 6.05019
2 12.4816 1.05314 12.3467
2 11.7739 11.7593 6.92713
2 12.3896 12.2629 0.373977
2 0.37187 12.843 8.34042
2 12.4822 12.7706 10.8464
2 -0.0991075 11.8543 4.41086
2 10.2886 3.16649 4.56883
2 11.1222 12.0744 9.28783
2 0.968127 10.9978 1.92676
2 2.46779 1.03955 8.64218
2 0.432322 1.64748 1.37778
2 2.516 11.7769 8.94191
2 11.6726 10.3443 1.32731
2 11.2539 1.18585 9.29068
2 1.93174 11.7749 11.1033
2 0.869952 1.00672 3.48499
2 10.4215 1.99054 11.0545
2 10.7998 10.9075 4.06544
2 12.3148 10.7337 10.6384
2 10.7239 0.1712 5.43808
2 0.794087 1.50423 10.7167
2 2.29915 11.7655 3.90336
1 11.2939 8.09949 7.86132
1 4.43957 11.9886 1.52463
1 0.950446 5.03383 8.27651
1 9.45075 0.732118 1.325
1 1.29549 8.12083 8.91537
1 7.7925 11.4507 1.62502
1 10.8077 4.90182 8.73221
1 3.91743 1.76496 1.30524
1 1.48591 4.88471 4.79638
1 7.49203 1.45426 12.7993
1 11.1297 7.35043 4.76359
1 5.08866 10.6162 12.4679
1 11.483 4.27918 4.14649
1 4.48106 1.53779 11.8887
1 1.1193 8.20541 5.72605
1 7.95358 10.9831 12.1871
1 10.4982 10.1146 2.61017
1 2.81367 10.6538 10.0267
1 0.956976 2.50491 2.96151
1 9.10998 3.0346 10.4698
1 2.09672 10.3856 3.25889
1 10.7637 10.5503 10.032
1 9.88159 1.42729 4.52876
1 2.00788 2.08814 9.56717
1 12.4661 0.82668 0.372451
1 11.6737 0.153902 8.06715
1 -0.07941 10.5903 0.598724
1 1.96864 12.7394 7.63356
1 0.473048 11.7954 11.6265
1 1.33484 -0.173798 4.55216
1 11.9153 1.4059 10.7367
1 11.6506 11.5838 5.31436
96
 Atoms. Timestep: 8000
2 0.45017 8.58905 4.61941
2 4.21603 4.34072 12.8198
2 0.628399 4.59799 3.98066
2 7.80275 0.740953 11.9422
2 11.5072 4.58848 7.04518
2 7.63486 0.752325 2.71081
2 11.9891 7.88675 9.017
2 4.22879 11.9582 0.679723
2 11.1096 7.36811 6.45427
2 4.8842 9.70384 12.7269
2 1.38777 3.92611 5.83437
2 8.1658 2.17572 1.03158
2 2.13328 8.27063 7.27063
2 7.57173 11.2538 0.583091
2 11.9027 3.92494 1.71294
2 4.02227 1.67654 12.5815
2 11.191 6.78647 3.83205
2 6.17673 11.2579 10.9306
2 2.24078 6.56116 5.62711
2 6.10209 3.02164 12.0271
2 1.24765 6.01043 8.1661
2 8.58842 2.91189 3.04608
2 9.82258 6.14604 8.11697
2 5.5569 11.4854 2.11448
2 9.90711 8.62933 9.78148
2 3.24926 9.14495 1.30169
2 1.76504 3.21306 8.1634
2 10.7631 2.06465 2.45427
2 1.50237 8.43317 9.67455
2 8.62381 10.9928 2.97827
2 9.52556 3.69525 8.29996
2 4.3611 2.12308 2.0727
2 2.65789 4.05023 3.6381
2 8.535 3.37016 11.3489
2 10.4709 9.30669 4.55786
2 3.39174 9.93607 11.2076
2 9.31281 4.61302 5.62594
2 3.97084 2.18637 10.0615
2 3.15267 8.34434 4.32578
2 8.83186 10.8148 11.0024
2 0.614566 10.0184 1.03952
2 1.63748 0.151128 6.60385
2 0.0630789 1.31044 13.0422
2 10.6673 0.300241 6.8703
2 1.17978 10.7631 3.45199
2 2.07145 10.2476 6.1018
2 0.887564 1.50792 10.3239
2 0.304494 1.41952 5.22971
2 10.9445 3.97411 4.05771
2 9.96043 11.1502 9.21935
2 1.19936 8.26401 2.41243
2 12.3811 11.0949 7.50457
2 1.70015 2.33682 2.05159
2 2.42378 10.9597 8.6357
2 11.3 10.2856 3.04755
2 11.8262 0.193294 9.52979
2 1.11866 10.181 11.2906
2 3.14371 1.48808 4.43045
2 11.431 2.22078 10.1332
2 10.7188 12.4818 4.20476
2 11.4794 10.4064 11.4438
2 10.344 2.02723 4.73335
2 0.123054 12.0942 11.9604
2 2.02454 11.5607 4.47862
1 10.4817 7.71243 8.31318
1 4.29693 10.2437 1.02389
1 0.83001 4.29281 7.36729
1 9.24153 1.71629 2.02203
1 1.13054 7.4879 8.21678
1 7.16631 11.8382 1.97922
1 9.74976 4.7817 7.24583
1 4.78218 1.00536 0.691172
1 1.85929 4.91057 4.84746
1 7.63837 2.47236 12.6015
1 11.3613 8.13206 5.00925
1 5.19658 9.69592 10.9258
1 11.9739 5.31656 3.18339
1 4.4757 2.93248 11.6452
1 2.06958 8.5411 5.6288
1 7.62457 11.4756 11.9698
1 9.89785 10.864 4.09946
1 2.14789 9.78771 10.2734
1 3.0383 2.44517 3.06698
1 9.89081 3.18309 9.82967
1 2.824 8.24233 2.67754
1 10.1106 10.2329 10.7396
1 9.16715 3.25298 4.59024
1 2.39995 2.08793 9.40938
1 0.0441141 2.32367 1.62243
1 10.958 11.8989 8.21104
1 0.323182 9.63278 2.62446
1 1.46432 11.3216 7.15493
1 0.452345 10.6259 12.6514
1 1.81383 0.935878 5.10267
1 11.9302 0.904272 11.1594
1 11.3969 0.893636 5.639
96
 Atoms. Timestep: 10000
2 0.122725 7.46143 5.30246
2 5.80214 4.86852 11.3229
2 0.00522275 4.90341 4.71919
2 7.18595 0.598893 11.0704
2 11.7062 3.92067 7.84745
2 9.19487 0.313633 1.57207
2 11.8125 6.8636 9.07098
2 4.36277 0.46631 1.95148
2 10.0237 7.63059 6.64998
2 4.55073 11.2762 0.541938
2 1.93479 3.76063 6.697
2 8.17876 1.99354 0.0239448
2 1.79863 7.93334 7.13834
2 7.69549 10.7117 0.134135
2 11.4132 4.69158 1.77169
2 4.50474 3.27267 13.0994
2 10.9498 6.49387 4.40795
2 5.88821 11.3387 11.2245
2 2.13454 5.89366 4.99074
2 6.23743 2.29928 11.906
2 1.25945 5.43032 8.83858
2 8.95306 2.42246 3.30842
2 9.46132 5.64231 8.12684
2 6.66753 10.9533 1.94095
2 9.85269 7.99607 9.44348
2 3.77872 10.7396 2.91475
2 1.88181 3.0375 8.76088
2 10.0228 2.99077 1.16857
2 1.7647 8.19072 10.2999
2 9.2009 10.6897 3.0844
2 9.61395 2.83999 8.79852
2 2.37586 2.23718 1.31449
2 2.27655 3.25209 4.0055
2 9.25791 2.01284 10.9943
2 10.705 9.14814 4.25944
2 3.48884 10.8826 11.1034
2 9.27644 3.55355 6.26384
2 4.51941 2.27927 10.3171
2 1.78153 9.11646 4.33525
2 8.1593 10.4912 10.6006
2 0.167869 11.1652 0.713322
2 2.20576 1.84203 5.64719
2 11.3455 2.80903 12.5107
2 11.7839 11.7541 6.77507
2 4.48963 0.62915 12.8776
2 3.02444 9.14979 6.11377
2 1.59349 1.10368 9.83513
2 12.3857 1.21698 5.67116
2 11.012 3.50401 4.00412
2 10.6332 10.0225 8.89912
2 1.17631 11.0255 3.2655
2 0.872029 10.1149 7.19628
2 0.21131 2.91093 2.27098
2 2.72352 9.53295 8.8119
2 11.5057 11.753 2.92921
2 12.4112 11.7426 9.47659
2 0.889834 10.0034 11.8997
2 1.08643 0.734924 3.73632
2 10.1993 0.793565 7.85662
2 9.98949 11.4356 5.05862
2 10.6495 10.6803 11.5783
2 10.1565 1.16485 4.90736
2 12.4376 0.377152 11.5061
2 1.45046 11.5783 5.47467
1 10.1952 7.01048 8.11015
1 4.85839 11.5202 2.00346
1 0.828966 4.08532 8.06119
1 8.93544 1.9353 1.46807
1 1.28703 6.96836 8.85317
1 8.36844 11.3415 1.80286
1 10.0049 4.1727 7.78535
1 3.96852 2.05728 1.02303
1 1.65862 4.38533 5.15115
1 7.98014 2.04171 11.6782
1 11.0691 7.86689 5.24009
1 4.37509 11.7535 11.9783
1 11.521 5.32023 3.38233
1 5.14452 3.47495 11.5354
1 1.71191 7.82092 5.61475
1 7.57574 11.6069 11.5535
1 10.8134 10.4967 3.38332
1 2.37449 9.71199 10.7907
1 1.76923 2.42498 2.75785
1 10.3064 1.44644 9.56248
1 2.38254 10.605 3.97314
1 9.74282 9.55533 10.3899
1 9.62355 2.70769 4.69892
1 2.98608 1.98279 9.68417
1 11.7014 3.32535 0.840493
1 11.9793 10.9133 8.15049
1 0.427865 12.1553 2.52647
1 2.70433 10.683 7.41077
1 12.2484 11.4807 12.2831
1 1.25537 0.756671 5.31151
1 12.5551 0.95331 10.0693
1 10.8551 0.398531 6.05784
96
 Atoms. Timestep: 12000
2 0.141634 7.84114 5.58262
2 5.49884 4.98311 11.2147
2 12.5017 5.01083 4.78207
2 6.82096 12.3431 11.8126
2 10.2835 4.32412 5.80771
2 8.22925 0.2765 1.56149
2 12.2553 6.78156 9.1963
2 4.68964 0.514763 1.52028
2 10.4393 7.31041 7.44338
2 4.37909 10.52 0.17207
2 2.03143 4.76486 5.78243
2 8.89813 1.80375 12.6765
2 1.87833 7.63924 7.58029
2 7.81192 10.476 12.9314
2 11.6509 3.97714 2.53339
2 4.09067 2.10866 11.6725
2 10.6462 6.00592 4.89138
2 6.15165 9.56647 11.8194
2 2.48734 6.79203 4.99282
2 6.33626 1.98736 10.7866
2 2.21216 5.25192 7.94007
2 8.16818 2.44942 2.60214
2 9.51571 5.43921 8.08331
2 6.13615 11.347 1.04333
2 10.3693 8.44652 9.07261
2 4.4128 10.908 3.69481
2 1.64914 3.13533 8.85557
2 10.4892 1.38543 1.55537
2 1.57539 8.09775 9.97166
2 9.12973 10.3536 2.44691
2 8.63231 3.37185 8.07069
2 3.70957 3.20962 1.06076
2 2.23438 4.87464 3.19469
2 8.15355 1.06401 9.84774
2 10.4996 8.69498 4.63416
2 3.57374 7.90718 12.1068
2 8.14 4.37897 5.40643
2 3.97226 3.398 10.0306
2 2.61919 9.23553 5.22518
2 9.12165 10.6799 10.5286
2 0.811653 10.8242 1.12657
2 1.8547 2.29953 6.48051
2 12.2185 2.38821 0.235808
2 11.2872 12.7689 7.11801
2 5.01851 7.59427 0.498848
2 2.33597 11.3495 6.56653
2 1.21837 2.82967 11.4241
2 12.0529 1.16434 5.1914
2 9.75542 3.82829 3.8665
2 11.3819 11.1091 9.54639
2 1.64793 10.5112 3.69179
2 1.02017 12.2222 8.69762
2 0.99444 2.95292 2.26097
2 3.56159 10.51 8.2319
2 11.2916 11.1485 2.92599
2 12.187 0.89115 10.231
2 1.91977 9.76106 12.6245
2 0.403077 0.337147 2.25128
2 9.82114 1.47125 7.14866
2 10.22 11.7964 4.94832
2 12.0898 9.57324 11.0948
2 8.95233 1.80951 5.23439
2 0.565243 -0.120372 12.0629
2 2.24081 -0.0984929 4.5064
1 10.5272 6.7457 9.06251
1 4.91311 11.5197 2.10289
1 1.42482 3.8749 7.42102
1 8.86329 1.76811 1.08486
1 1.52644 6.71322 8.89323
1 8.06089 11.319 1.29635
1 8.94769 4.47662 6.90904
1 4.02171 1.78421 0.37932
1 1.49403 5.63449 4.56312
1 7.63508 1.2687 11.3756
1 11.0806 7.45099 5.80123
1 4.764 9.15778 12.5775
1 11.101 4.55026 4.02782
1 5.34937 3.31861 10.7509
1 1.93344 7.98798 6.00946
1 7.349 10.9112 11.1062
1 10.421 10.2822 4.04242
1 1.90437 8.55968 11.4421
1 2.45384 4.09099 1.79128
1 8.89083 1.68403 8.3578
1 2.66225 10.8386 4.74346
1 10.5585 9.86734 10.0746
1 8.35331 3.05959 4.07831
1 2.35985 3.58541 10.4102
1 12.0781 2.09395 1.92106
1 12.0284 12.4576 8.48612
1 0.17032 11.3597 2.525
1 2.39488 11.41 8.19284
1 1.53932 11.426 12.7955
1 1.5891 1.37314 5.1584
1 0.0316683 1.67226 11.5857
1 10.4653 0.758019 5.44206
96
 Atoms. Timestep: 14000
2 12.0268 7.74709 5.21578
2 4.30304 5.23111 12.4998
2 0.317695 4.97725 4.57204
2 6.93233 0.565841 10.8249
2 10.8855 5.54406 5.94916
2 8.54793 12.3129 1.94229
2 11.5256 8.14425 8.00836
2 3.46177 11.9412 1.31649
2 9.80797 7.51059 6.25265
2 4.34439 9.68415 0.43131
2 2.47378 5.05579 6.2785
2 8.16718 1.42251 12.592
2 2.08707 7.68878 6.5578
2 6.98623 11.0871 0.544294
2 11.9993 3.48547 2.61843
2 4.72569 2.2478 0.466672
2 10.3322 6.09745 3.4409
2 6.10545 10.1411 11.1765
2 1.90138 6.58982 4.1205
2 6.70266 3.35994 11.2971
2 1.86693 6.18516 8.48119
2 8.28032 2.03396 2.65956
2 9.80105 5.83603 8.17882
2 5.53407 11.091 2.49393
2 9.22129 8.87209 9.33722
2 3.88528 10.0955 3.36092
2 2.57106 3.49592 9.37327
2 10.7889 2.0601 1.17647
2 1.89714 8.77856 8.92527
2 8.72961 10.3421 3.1117
2 9.77732 3.82893 8.2468
2 3.80815 1.85916 2.87804
2 2.77042 3.5242 4.60983
2 9.07389 1.94224 10.1424
2 9.82378 8.42665 4.40383
2 4.07426 8.50765 10.5901
2 8.60683 3.46444 5.76012
2 4.48983 2.6702 11.1295
2 1.8821 9.05522 4.02883
2 8.82315 10.6112 11.2491
2 0.753493 10.6738 0.85447
2 0.851526 3.79548 7.25975
2 1.40991 1.67944 0.751835
2 11.6058 11.8674 6.82601
2 5.70364 7.45711 11.848
2 3.08943 11.1569 5.84064
2 2.12316 2.39018 10.9934
2 12.0493 1.41055 5.36959
2 10.2335 3.57969 4.3122
2 10.6314 11.028 9.14181
2 1.44537 11.0817 3.36039
2 1.19415 11.2358 8.05865
2 1.59265 2.0281 3.20956
2 3.39745 0.721013 8.47875
2 11.381 10.1569 2.9629
2 11.2657 2.14175 11.3376
2 1.85299 10.6368 11.0292
2 11.6136 0.496199 2.4823
2 10.283 1.36416 7.52629
2 10.0543 11.1945 5.10031
2 11.6671 9.98192 11.1108
2 9.43759 1.36732 4.81599
2 0.571415 0.451808 11.7109
2 1.74206 1.05032 7.17684
1 9.78669 7.58469 8.07154
1 4.14893 10.5817 1.61748
1 2.16573 4.5903 7.73783
1 9.21192 1.55062 1.26975
1 1.21435 7.68716 8.10974
1 7.45389 11.2076 2.21284
1 9.56633 4.77176 6.70144
1 3.52619 1.32181 1.2712
1 2.02155 4.86335 4.34818
1 7.6565 2.02262 10.925
1 10.6346 7.02549 4.81483
1 5.07509 8.99489 11.8375
1 10.9734 4.6598 3.51888
1 4.99383 3.64552 12.2733
1 1.55226 7.77951 5.14484
1 7.118 11.2329 11.4846
1 10.1005 10.2114 3.63097
1 2.47095 9.04504 10.291
1 2.77468 1.87934 4.18295
1 10.0418 2.40271 8.77821
1 2.72199 10.5704 4.20328
1 9.92343 10.0239 10.4186
1 8.6027 2.75447 4.33343
1 3.2225 1.96308 9.82547
1 0.464591 1.83901 2.0079
1 11.8295 11.6265 8.40122
1 0.28008 10.9961 2.28471
1 2.71445 11.8104 7.34961
1 0.7733 10.9314 12.0666
1 1.26906 1.97209 6.14878
1 0.845252 2.30139 11.9879
1 10.6398 0.595452 5.76174
96
 Atoms. Timestep: 16000
2 12.5839 8.22445 5.05269
2 11.6419 6.17907 0.580596
2 0.21082 5.02609 3.5126
2 7.5092 12.4001 12.1529
2 10.5069 5.97634 5.50243
2 9.15054 0.215062 1.2734
2 12.2806 6.82768 8.51403
2 4.26989 11.919 1.10604
2 11.2886 9.33711 7.87225
2 4.70463 9.58343 0.669119
2 1.97733 4.23304 6.02052
2 8.03172 1.77729 0.132411
2 1.40251 8.29225 7.61389
2 8.11229 10.3717 13.1889
2 11.9466 3.40767 1.58388
2 4.36426 1.85914 12.4338
2 11.0871 6.66859 3.00283
2 6.58934 9.75809 11.6562
2 1.21539 6.43947 5.08962
2 6.02263 2.51466 11.3742
2 1.62322 5.61484 7.47916
2 8.91033 2.63121 2.44412
2 9.84041 6.11243 7.71834
2 6.57355 11.356 1.53135
2 10.598 8.2416 9.94302
2 3.91477 10.1385 3.01017
2 1.33454 3.22883 8.92049
2 10.9646 1.4181 1.81683
2 1.94581 8.00212 9.67574
2 8.84003 11.9669 3.1162
2 9.49927 3.56538 7.95264
2 3.76395 1.88873 1.78713
2 2.83115 4.17944 3.73225
2 8.63647 2.05093 10.4864
2 10.5187 8.48064 5.23442
2 3.79722 9.15531 11.5779
2 8.52966 4.1414 5.07068
2 3.20031 2.30566 10.1853
2 2.68425 9.34504 5.06622
2 9.32259 10.3796 10.9205
2 0.599568 10.5461 1.49737
2 0.12061 2.9366 6.64458
2 0.406448 1.78814 0.255944
2 10.7833 11.7049 7.50561
2 5.19962 7.61459 0.213888
2 2.75286 11.7569 5.60641
2 0.913146 1.41942 10.9276
2 11.2929 1.08919 6.43948
2 10.4911 4.17111 2.74867
2 11.4565 10.644 9.46554
2 0.975248 10.767 4.13576
2 0.890919 11.4485 6.6092
2 1.69173 2.08126 2.61355
2 2.16519 0.883555 7.93263
2 11.3295 11.5262 3.9669
2 10.5141 0.961934 12.6963
2 1.27752 9.74472 11.6807
2 0.00809317 0.370477 2.46471
2 8.66221 0.966588 8.18765
2 9.46434 0.197852 5.48207
2 12.0031 8.83784 11.9775
2 10.5663 1.94188 4.35657
2 0.0768505 11.5231 12.2122
2 1.11602 1.35105 5.57466
1 10.9373 7.45563 8.58077
1 4.95416 10.7367 1.87542
1 0.913191 3.98138 7.45887
1 9.47345 1.62375 0.989264
1 1.27198 7.08885 8.58824
1 8.42898 11.391 1.666
1 9.45879 4.80808 6.40769
1 3.5301 0.706029 0.533814
1 1.58341 4.87126 4.63101
1 7.47794 1.76588 11.8401
1 11.2723 7.31465 4.70659
1 5.2154 9.26629 12.4118
1 11.5331 5.14196 1.8653
1 4.28134 2.91257 11.3
1 1.65591 8.30715 5.89676
1 7.97037 10.7486 11.6504
1 9.94577 0.280244 3.82002
1 2.34293 8.63735 11.0395
1 3.07408 3.09612 2.46603
1 8.4548 2.51928 8.52203
1 2.73273 10.792 4.29496
1 10.8257 9.62917 10.6882
1 9.43388 3.25772 3.81952
1 1.78643 1.70825 9.42013
1 0.269677 2.00596 1.90329
1 12.1081 10.725 7.89703
1 12.4957 11.2558 2.87217
1 1.74635 0.0945646 6.52119
1 0.42251 10.2771 13.0351
1 12.2256 2.15459 5.47388
1 12.3868 0.739193 12.145
1 9.98683 0.29091 6.93925
96
 Atoms. Timestep: 18000
2 0.986634 7.05224 6.08719
2 12.4029 6.464 1.96644
2 1.21846 3.72597 4.21407
2 7.13165 0.922109 11.425
2 10.4087 6.43478 5.92769
2 8.07794 1.64808 1.15763
2 11.9074 7.571 8.74417
2 4.71792 11.3203 1.35946
2 12.0111 9.41185 6.09323
2 5.33022 8.87244 0.699785
2 0.986949 5.00081 6.44574
2 7.98735 3.50281 11.9095
2 2.50359 7.32154 8.27598
2 7.93857 11.7523 0.294707
2 0.345387 3.79033 2.40279
2 3.20933 0.446731 12.8266
2 12.1567 6.21382 4.51414
2 5.99636 10.5549 12.3098
2 3.18012 5.69475 6.24472
2 5.05753 2.24073 11.5777
2 0.452713 5.46917 9.19955
2 9.59321 3.26644 1.51243
2 9.37106 6.08483 7.52611
2 6.57457 11.2276 2.30585
2 10.1143 8.45427 9.65283
2 4.79152 9.65202 3.64185
2 0.0714493 3.06442 8.71229
2 11.512 1.50761 2.3606
2 1.82051 7.74766 10.1359
2 9.3178 11.9844 1.91031
2 9.52857 3.64219 7.37937
2 3.70889 0.673187 2.84409
2 3.09091 2.46949 5.05505
2 7.73424 2.36445 9.60426
2 11.4963 8.19946 4.49886
2 3.78716 9.12491 11.6929
2 9.77073 4.32755 4.50477
2 2.1676 1.39201 10.2465
2 3.00691 8.70807 5.48234
2 8.80236 10.3744 11.2372
2 1.12841 10.7205 0.81954
2 11.5275 3.79943 6.35876
2 0.424243 2.32883 0.470102
2 10.0624 11.4422 6.31175
2 6.81464 8.26628 11.6134
2 2.5892 11.5141 5.33305
2 12.3815 1.64763 10.4912
2 10.6962 1.52194 6.03366
2 10.9048 4.58214 2.31464
2 10.8568 10.5662 8.99372
2 1.92312 10.2453 3.39783
2 12.46 11.6864 7.46889
2 2.06056 2.44597 3.0769
2 1.80811 0.752156 7.91331
2 12.4038 11.6118 3.2863
2 10.6054 2.2245 13.031
2 1.57648 10.1656 11.6758
2 1.47684 0.70917 2.06374
2 8.03331 1.64718 6.95685
2 9.61104 12.02 4.30853
2 11.5277 9.48802 11.6193
2 11.2661 2.55529 4.0241
2 11.9889 12.0555 12.26
2 0.898735 1.33902 5.45718
1 10.1423 6.96644 8.69018
1 5.39074 9.89939 2.26482
1 12.0824 4.28187 7.7598
1 8.83303 2.68624 0.14092
1 0.935141 6.99351 9.06878
1 7.68119 12.3215 1.64422
1 9.83483 4.69992 6.19705
1 3.76314 12.3641 1.28939
1 2.23765 4.222 5.44029
1 6.65434 2.31677 11.1882
1 11.6974 7.57252 6.0817
1 5.42066 9.14694 12.1228
1 12.0927 5.37196 2.91232
1 3.74833 1.37988 11.5166
1 2.66716 7.24324 6.52484
1 7.39693 11.3971 11.683
1 10.8028 12.5083 2.88349
1 2.65995 9.21361 10.7173
1 2.91893 1.60229 3.91339
1 8.5306 2.762 8.30989
1 3.24468 10.2056 4.65909
1 10.2859 9.95486 10.7804
1 10.0352 3.26297 3.17933
1 0.78013 1.43732 9.11782
1 0.690737 2.15008 1.91303
1 11.1602 10.614 7.24255
1 1.4183 11.4075 2.21247
1 1.67543 0.094525 6.241
1 0.311349 10.5032 12.5589
1 12.0113 2.2884 5.56576
1 11.989 1.56959 12.1895
1 9.07068 0.386265 5.99734
96
 Atoms. Timestep: 20000
2 0.592012 7.44788 4.74484
2 11.8727 4.38468 0.591321
2 2.14224 3.48266 4.13478
2 7.40903 11.7251 9.80303
2 10.3351 6.14738 5.73764
2 8.05132 0.794256 0.6377
2 12.1588 6.32286 8.82102
2 4.52677 0.332843 1.47187
2 11.499 8.43118 6.15738
2 4.92288 10.2035 13.0217
2 4.14412 4.09631 7.01554
2 7.76229 2.53279 11.2847
2 1.64277 6.69719 6.91747
2 7.69658 10.6875 12.2188
2 12.0644 4.13702 3.44484
2 4.48148 2.56578 0.621801
2 11.2639 6.36099 3.17089
2 6.30941 9.38177 10.9075
2 2.793 6.12602 4.99172
2 5.33967 1.75718 10.6741
2 2.67946 5.33154 9.14734
2 8.19159 3.50532 1.40805
2 9.83541 5.82558 7.8117
2 6.37455 10.7448 1.59604
2 10.2082 8.12486 9.41518
2 3.65148 10.4511 2.96261
2 2.73316 2.50247 9.15166
2 8.5376 1.80237 3.04156
2 2.12284 8.06702 9.0941
2 9.07813 11.6337 2.10192
2 8.22237 3.80673 6.64912
2 3.46826 1.48176 3.36224
2 3.90144 2.81074 5.43022
2 7.22659 1.35361 8.68086
2 10.4745 8.37158 3.95914
2 3.46893 8.40415 11.7352
2 8.49081 4.34255 4.71357
2 2.48989 2.0134 11.5091
2 2.57161 8.81958 5.27004
2 8.93982 9.49934 10.1985
2 1.51633 11.7004 0.60655
2 10.6657 3.87126 6.88016
2 11.107 2.18368 3.81869
2 10.1673 10.8182 6.44109
2 6.45955 7.91788 13.4674
2 3.03388 11.5195 5.4803
2 0.584379 2.87726 10.8116
2 10.9628 1.69815 7.17642
2 10.0632 4.1457 2.58165
2 11.6179 10.0014 8.72089
2 1.64182 11.184 3.7448
2 0.824955 10.8851 7.41015
2 1.90263 1.60434 4.8045
2 1.13916 0.432145 9.48529
2 11.5502 11.8687 2.38701
2 10.1959 2.60598 12.1392
2 1.43092 10.3682 10.675
2 1.31432 1.43176 2.92861
2 8.95779 1.44175 7.20525
2 9.93166 -0.295643 4.59454
2 11.335 10.5102 11.3152
2 0.588868 2.98537 5.66571
2 0.28334 1.40634 12.5828
2 1.0261 1.8971 7.45168
1 10.5463 6.57579 8.81204
1 4.5386 10.9905 1.70256
1 3.53702 3.85268 8.58855
1 8.5229 2.46763 12.7064
1 1.65688 6.68296 8.46213
1 7.86205 11.4564 1.12019
1 9.46545 4.75667 6.16878
1 4.3988 2.14661 2.10142
1 3.36546 4.39269 5.57501
1 6.97924 1.38578 10.2352
1 10.9962 7.32063 4.98868
1 5.25711 8.8718 12.0766
1 11.2834 5.07639 2.35901
1 4.00485 2.44702 11.6418
1 1.89212 7.32168 5.52166
1 7.76784 10.2601 10.7535
1 9.99742 0.415492 3.24248
1 2.04514 8.84759 10.6199
1 3.51906 1.36492 4.98186
1 7.56968 2.24518 7.19529
1 2.84102 10.3249 4.39596
1 10.6786 9.47654 10.1151
1 8.43603 3.52754 3.13782
1 1.49868 1.87032 10.1668
1 0.644719 2.75792 3.99518
1 11.4927 10.0124 6.9969
1 1.10853 12.0035 2.23247
1 1.37424 0.217197 7.8336
1 0.593377 11.5889 11.7626
1 11.911 2.9101 6.91074
1 11.7038 2.92253 12.1674
1 9.85859 0.326302 6.29065
96
 Atoms. Timestep: 22000
2 1.07354 7.41456 4.72241
2 11.4582 4.51569 0.684435
2 0.97863 5.08376 5.79033
2 7.45254 0.746471 10.4022
2 10.9731 5.33302 5.05279
2 8.54101 0.940344 12.8663
2 12.1506 6.65927 8.59185
2 5.35005 12.1582 2.28796
2 1.29246 9.80096 6.82662
2 5.24049 9.67337 0.211062
2 2.30544 4.50241 7.53387
2 7.35829 2.72617 11.9869
2 2.13152 7.37037 7.10281
2 7.9224 11.3039 12.1052
2 12.1676 2.89044 2.62524
2 4.55338 2.06675 0.464727
2 0.0305286 5.57882 3.27278
2 6.08701 11.0661 10.989
2 3.46901 5.3253 5.00961
2 4.95968 2.21926 10.8356
2 1.76644 5.68651 9.43858
2 8.41866 2.84085 1.9463
2 10.2805 6.34283 7.29853
2 7.20741 10.9961 1.33392
2 9.96485 8.29017 8.55471
2 4.14929 10.3177 2.72122
2 1.1821 3.26587 9.90774
2 9.22177 1.43543 4.00042
2 2.23073 7.79967 9.82683
2 8.89184 12.1941 2.11342
2 9.37154 3.91213 7.8455
2 4.00537 1.65458 2.87433
2 2.51411 2.18257 5.66235
2 6.90332 2.18699 9.07514
2 11.7106 7.13648 5.95769
2 4.27365 9.30209 10.3356
2 8.99962 4.00263 5.27093
2 2.61125 1.7629 11.5739
2 2.65523 9.59414 4.98335
2 8.61819 10.1333 9.93082
2 12.0713 11.2412 0.114525
2 11.4575 3.75555 6.676
2 11.1119 0.571912 3.92553
2 11.1245 11.8775 7.60478
2 6.1547 8.22696 11.7631
2 3.35351 11.9064 4.32162
2 12.2393 2.43235 11.4377
2 10.5286 1.52501 7.18656
2 10.1163 4.40943 3.14581
2 11.2133 9.89672 8.71944
2 1.10747 10.322 2.60884
2 0.882158 11.7625 7.72648
2 1.73861 1.47412 3.4226
2 2.37599 1.02204 9.45467
2 10.6782 10.7685 2.94052
2 9.90975 2.98808 12.1561
2 1.67512 10.3676 11.3219
2 11.7975 12.4004 2.03818
2 8.57891 0.892407 7.91109
2 9.4565 11.8792 5.28373
2 11.2734 10.0601 11.0697
2 12.223 2.16283 4.85834
2 0.468563 0.137356 10.8444
2 0.800158 1.7217 7.69998
1 11.1769 7.59688 7.41947
1 5.33501 10.593 1.4689
1 1.35454 4.29521 8.79894
1 8.51482 2.51591 0.162366
1 1.52028 6.9962 8.64972
1 8.46366 11.7347 0.777152
1 9.92867 4.84443 6.38269
1 5.01784 1.41708 1.74807
1 2.54893 4.23221 5.8178
1 6.57215 2.16165 10.6819
1 -0.0394203 6.11057 4.81857
1 5.45002 9.76148 11.5118
1 11.3916 4.34584 2.24311
1 3.96281 1.98431 11.9896
1 1.73205 8.54584 5.88943
1 7.63505 11.5104 10.364
1 9.77958 12.131 3.64599
1 2.63947 9.3289 10.2957
1 3.15564 1.1819 4.61205
1 8.26593 2.49508 8.23855
1 2.5531 10.4439 3.75217
1 10.1352 9.40096 10.0064
1 9.10449 3.00781 3.53328
1 1.18726 1.57964 10.59
1 0.229065 1.31919 3.08222
1 12.2676 10.5982 7.35998
1 11.8818 10.5493 1.81541
1 2.03402 0.571147 7.87968
1 0.229103 11.0085 11.3842
1 12.0364 2.28376 6.61871
1 11.3957 3.53195 12.3743
1 9.63291 0.0691601 6.99342
96