LAMMPS data file via write_data, version 2 Aug 2023, timestep = 100000, units = metal

96 atoms
2 atom types
0 bonds
1 bond types

0.6238098153611684 11.965652853638677 xlo xhi
0.6238098153611684 11.965652853638677 ylo yhi
0.6551568778056813 12.566938787194289 zlo zhi

Masses

1 28.0855
2 15.9994

Atoms # full

45 1 2 -0.55 0.6884956223398601 1.8680820744235862 1.197992303188125 0 0 0
3 1 2 -0.55 1.989289203542157 3.316026035864711 2.8618742716240786 0 0 0
16 1 2 -0.55 5.815305979587848 1.9376429177873593 2.008307153689432 0 0 0
72 1 1 1.1 5.193291766828431 2.1657111373423894 3.478689539046226 0 0 0
68 1 1 1.1 7.209621877793254 1.506225189476888 1.2717834668412031 0 0 0
28 1 2 -0.55 8.362567614691951 2.2942939746846287 2.113519155229854 0 0 0
89 1 1 1.1 11.910366415995572 3.2277401675718758 2.0898273648990253 -1 0 0
87 1 1 1.1 9.252235451370199 2.2145962271413904 3.501223223862817 0 0 0
49 1 2 -0.55 10.613969386507248 3.1096989347114046 3.0871179604813705 0 0 0
35 1 2 -0.55 10.082617957746722 0.7891578487005382 3.4813197102726954 0 1 0
19 1 2 -0.55 2.959794408213161 5.753395645882583 2.8969660661518986 0 0 0
43 1 2 -0.55 11.877638123262702 4.536330501478208 1.1151311086207634 -1 0 0
1 1 2 -0.55 2.242303372125293 8.389128479118483 2.973278124250918 0 0 0
79 1 1 1.1 3.4769994236241413 7.3134787010025395 2.759732472076079 0 0 0
39 1 2 -0.55 4.233062291228826 7.623926500022036 1.3291112410974455 0 0 0
4 1 2 -0.55 6.526091260360201 8.818984159316312 1.4982535931960972 0 -1 1
8 1 2 -0.55 2.101180350903717 10.937456852970215 1.9236309622965573 0 -1 0
85 1 1 1.1 1.6930561001811941 9.921779999720611 3.1706696599448354 0 0 0
91 1 1 1.1 1.6094340904875333 11.951112018299646 0.734193637179189 0 0 0
24 1 2 -0.55 8.791830449065872 9.344461370388395 0.9148130718220149 0 0 0
6 1 2 -0.55 7.490664170970551 11.255746947986179 1.3252559687771273 0 -1 0
70 1 1 1.1 7.705152584475302 9.827178691446813 2.1399651911803996 0 0 0
30 1 2 -0.55 6.921682109857478 10.390631356190903 3.549195598916698 0 0 0
18 1 2 -0.55 9.00155962204057 9.714743213442372 3.221453379974639 0 0 1
51 1 2 -0.55 11.409247795947714 9.886149566328033 3.398929784915607 -1 0 0
58 1 2 -0.55 1.5032465540120983 1.73043544041368 5.763035151082266 0 0 0
83 1 1 1.1 2.0652291776378737 3.139791404678774 6.399931431826508 0 0 0
20 1 2 -0.55 4.386346558948002 3.5320579430488235 3.824547902154639 0 0 1
22 1 2 -0.55 5.802634636888624 1.1171589403667574 4.559306967305401 0 0 0
55 1 2 -0.55 8.094039125237423 1.4142541253593741 4.496202692691245 0 1 0
37 1 2 -0.55 9.10389420595935 3.3079751864819493 4.7620223485096576 0 0 0
77 1 1 1.1 8.70939930791716 3.426484254489156 6.330891698481029 0 0 0
73 1 1 1.1 2.948483117650751 4.315801880981267 3.6943926938994958 0 0 0
33 1 2 -0.55 2.2050039651439355 4.202070090735017 5.147248031477252 0 0 0
21 1 2 -0.55 4.728507511946901 5.814556642226081 6.3334289579930205 0 0 0
7 1 2 -0.55 2.912155267003978 7.4021942287895275 6.246677630375618 0 0 0
13 1 2 -0.55 4.432162812823112 7.415205156083341 4.083737337777192 0 0 0
69 1 1 1.1 4.458756393945421 7.331596530680578 5.7127831027928115 0 0 0
29 1 2 -0.55 5.456387462226095 8.550580028067039 6.240205057206963 0 0 0
64 1 2 -0.55 2.039347191318277 10.634942019285543 4.62532594192624 0 0 0
94 1 1 1.1 1.290642655594707 11.438131182421081 5.857883558351923 0 -1 0
81 1 1 1.1 7.0965479397971105 11.407913768721142 4.85975538166549 0 0 0
25 1 2 -0.55 8.658932757011785 10.758465176088661 4.985639706804593 0 0 0
57 1 2 -0.55 6.572579064172506 11.221213377055237 6.527524470310311 0 0 0
75 1 1 1.1 10.101750761062998 10.633105692742 4.129322447410232 0 0 0
48 1 2 -0.55 11.100774921708334 10.938764323385865 5.444107483449307 -1 -1 0
53 1 2 -0.55 6.082164733648368 1.6958703302447364 8.808644256890215 -1 0 -1
62 1 2 -0.55 7.445907917638878 2.417877067523697 6.642052576554445 0 0 0
96 1 1 1.1 7.03710752298179 1.1459015002388866 7.589391884079002 0 0 0
44 1 2 -0.55 8.46769799923721 0.8776767558907789 8.312416348629263 0 0 0
17 1 2 -0.55 9.811313238023427 2.7132583334703617 7.343643251487479 0 0 0
90 1 1 1.1 9.830644984953032 1.7231041685988553 8.676059170352143 0 0 0
61 1 2 -0.55 11.01476814972682 0.679992424394012 9.088643721996668 0 0 1
15 1 2 -0.55 1.3535071088033002 3.7319266434409055 7.76740717715391 1 0 0
71 1 1 1.1 1.7267055393504316 4.707878079174211 9.08648875490789 1 0 0
23 1 2 -0.55 1.3435857256521113 6.097142554102013 8.236277843632333 1 0 0
5 1 2 -0.55 3.3117860923695615 5.043167284187215 8.695924791863714 0 0 0
32 1 2 -0.55 3.6182927093083217 3.449376647773981 6.880118300728821 0 0 0
67 1 1 1.1 4.42728803422772 4.708722316689614 7.526703689704352 0 0 0
27 1 2 -0.55 5.9284402600735735 4.632846223101111 8.13497163711936 0 0 0
34 1 2 -0.55 8.151751127574247 4.863824271854504 6.862977236965503 0 0 0
84 1 1 1.1 7.29726202479176 5.504533633017489 8.122816546871569 0 0 0
59 1 2 -0.55 8.361099854638903 5.1629554188345175 9.293427104666534 0 0 0
65 1 1 1.1 1.9833918287810157 7.422395487349309 7.56615275617634 1 0 0
9 1 2 -0.55 2.4260825665417727 8.662797160996764 8.483135305275498 1 0 0
2 1 2 -0.55 6.749327638041266 7.022390636982126 8.410145760184447 0 -1 0
42 1 2 -0.55 1.7246265957720883 11.049021828612663 7.385832877981467 0 -1 0
92 1 1 1.1 2.747804827212026 10.268300484105348 8.427986370490292 0 -1 0
82 1 1 1.1 5.617711279008864 9.92467962438207 7.128655602608019 0 0 0
54 1 2 -0.55 4.066754172633593 10.420764143314432 7.407138881384794 0 0 0
36 1 2 -0.55 6.167142269400529 9.486333721945533 8.607675882086117 0 0 0
38 1 2 -0.55 2.9046390586789825 1.076246775513267 11.64729309569347 0 0 0
88 1 1 1.1 3.067846965130061 2.672330746478132 11.103940292634007 0 0 0
63 1 2 -0.55 1.9533722606150405 3.510873428482638 10.254315637689078 0 0 0
11 1 2 -0.55 4.619138700282971 2.996968372917163 10.731565999805873 0 0 0
74 1 1 1.1 6.059507899800639 2.2474901285079336 10.365869777340762 0 0 0
56 1 2 -0.55 5.4251247513355345 0.8447372170547365 11.027909707914475 0 0 0
12 1 2 -0.55 7.111007419809216 1.7786591702831605 11.58981471782344 0 0 -1
46 1 2 -0.55 9.547354693907009 2.7469769305748994 9.901872240560639 -1 0 0
31 1 2 -0.55 0.8391705919144101 5.367543919546181 10.34810877111719 1 0 0
40 1 2 -0.55 7.118286015756935 3.5303250009226046 10.62848715864357 0 1 0
86 1 1 1.1 8.673295494178088 4.023975082505176 10.408261180481539 0 1 0
50 1 2 -0.55 9.680131200655637 4.78853220301858 11.438317149509658 0 1 0
95 1 1 1.1 11.252023718595519 5.1254747361304105 11.662926140362163 -1 0 0
66 1 1 1.1 5.229627400235998 8.635678660908773 12.396729729961098 0 0 -1
10 1 2 -0.55 5.6166462781249225 8.033073904437195 10.881655976404193 0 0 -1
76 1 1 1.1 6.59230896855722 8.208462284765403 9.54864620715702 0 0 0
14 1 2 -0.55 8.02941700573497 8.313649424663318 10.300874572221797 0 0 -1
52 1 2 -0.55 1.521145822242202 10.220645937476146 9.557506649090918 0 -1 0
60 1 2 -0.55 3.770298338061215 10.822593475220229 9.605990760270672 0 0 0
26 1 2 -0.55 4.360084922911789 10.02421506796181 12.150426599115153 0 0 -1
78 1 1 1.1 4.06199966813895 11.29118791788605 11.144176050201349 0 -1 0
80 1 1 1.1 9.058438620849977 9.144272776521275 11.217771120787152 0 0 0
93 1 1 1.1 11.47433310188503 10.82866632593814 10.123231702473799 -1 0 0
47 1 2 -0.55 10.353585789838037 9.678061477902249 10.396484670720923 -1 -1 0
41 1 2 -0.55 11.852763963482511 11.291080281225858 11.63470766787573 -1 0 -1

Velocities

45 -2.3058009347826687 1.068159375754059 0.96640250727665
3 0.2972431759013285 -1.277376488318239 0.9652845204209315
16 1.5015079123577866 -0.9846269510537592 1.1119187047993335
72 0.26708930119798424 -1.1848190958071554 -1.1005326032220326
68 -0.596444291836912 0.6903709195260059 1.749841136909636
28 0.7947840251267447 0.43068179479027474 -0.6747672925541175
89 -0.2372817006963782 -0.48384178322573024 0.68495576692199
87 -0.7082818599754158 0.44682747017491875 -0.37739145953908226
49 -0.9608466461446682 0.37641992839545824 -0.7674478396737515
35 0.4265094593092941 -0.07347255095249941 -1.4660820895336448
19 -0.32532441884865065 0.7137997927153691 -0.5749315999169115
43 -0.15742937109047953 0.883157856110082 -0.6098762372940811
1 -0.33962074310909446 1.543747085323141 -0.6830054061587434
79 -1.404548005422612 1.1367666223836723 0.4084524101621669
39 -1.316477172502524 0.9422823562210161 0.5996500854525386
4 -1.0018286398434182 0.7533780632135262 0.7341677732755484
8 0.9954311188686641 0.7364619214276263 -0.565447790458008
85 -0.37013547914598977 -1.2137976337851175 -0.04990519056552908
91 -0.6289693564968268 0.4352726839520908 -0.9721514648209627
24 0.08563346708735373 -0.5638669618661577 -1.0123384025968558
6 1.8886308412614516 2.4477177513646264 2.1768488464267537
70 0.7955084789269465 0.6096293978445839 -0.41067548711940455
30 1.7615246427384232 -0.9565420026635831 -0.6148270349800038
18 0.1934204115118441 -0.06038483131396966 -0.7062267950302156
51 -0.15219493193909908 -0.26932173520756064 0.30658326249173173
58 -1.2782695481008826 -0.08669335515922529 -1.764966730191202
83 0.6332288843591007 0.30549185381847177 0.28459908357740865
20 -0.2662190701431691 0.7939463347869555 -0.5686771203921124
22 0.020436735966523626 -0.48749723370508447 0.9440263272991751
55 0.35921117988256546 -0.7854923012651591 -0.7411800103426539
37 -0.12038137920004728 -0.06591456804362282 1.3930564081419805
77 1.3486848624120937 0.19514623453338936 0.3409134863110095
73 -0.5437820492482571 0.47769511988413776 -0.5005236098848729
33 -0.9378260919664214 0.27592159810729544 -0.21230085129322923
21 -0.6760912985509844 0.4714238999080034 -1.2217442317802745
7 0.22143005392525444 -1.766323517103236 -1.707351823755718
13 -0.9378212380614406 -0.4388568027348178 1.9562554234411726
69 0.14632433970490216 0.5540582388958821 1.6546119338031386
29 0.38125541363381993 -1.7155889024103779 -1.206998422975993
64 0.17731471621310577 0.08948633100886626 -0.5085728621853886
94 -0.7014432436395805 -0.9388086086166202 -0.031542758867337636
81 1.0451407693989738 -0.01390196511516553 0.6533469270334208
25 -0.40760002045552574 -0.10574325673444102 0.6804949633807631
57 -0.775252229904849 -0.043086980629937786 0.7966296522327211
75 -1.1844751581807345 0.982592394431881 0.27088916845181377
48 -0.7400668619076057 0.25988116549052903 1.1264536963728538
53 -1.0204909345538593 0.3013962942347562 0.5532360844072568
62 0.42515894871309406 -2.1499717310567092 -1.3590863494941712
96 -0.5992731575968777 0.4295682636511747 -0.42480274438060966
44 -0.14081959718821133 0.6630814846303233 0.20484552593962782
17 0.4761892817902211 -0.4280176649530368 -0.7971754921266868
90 1.3043587666357608 0.6261377621642985 0.039301925020912516
61 0.967464745256409 -1.9013992367686092 0.007507956945057604
15 -1.499183879539517 -0.647345517537308 -0.7383274291285832
71 -0.16811298194182808 -0.1274644959960039 0.08436340895038766
23 1.0562222043730878 1.0815809509259364 -1.4136450371229985
5 0.1118406523221832 -0.6310282415957944 0.7878471815363465
32 0.03908541917237349 1.1664278428640382 -0.21532752951512396
67 1.3297472386347398 -1.5643258443793124 -1.4202687286757807
27 1.5216891246482347 0.012647284747370122 1.1196221144995109
34 0.865547314413432 0.35772019933237625 0.45813201618627103
84 -0.371222087087116 -0.5870274409694272 0.5896374413096912
59 0.499628689397921 -0.4730716857234965 0.786618414755427
65 0.1383307258739341 0.22688261600736395 -0.9640652906326345
9 -0.9974346817982573 0.7830684855129932 0.6064404117503259
2 -0.47703649177831364 0.1077508350447828 1.4322304848853868
42 -0.8630515901156187 -0.15526675048544755 0.27173751104417315
92 0.5795583848831339 -0.32756490107129127 -0.6818443887881046
82 0.1467522668255643 0.25719589559876305 -0.685043275634361
54 1.052585494755788 -0.4934103282837553 -0.1669010788850296
36 -0.6429942977476837 -0.4875382741431457 2.5786903034161335
38 -1.4051638713075951 0.6453619501095033 0.14532985041011343
88 0.02592964696232998 0.4714164366001656 -0.3666194474542524
63 1.470502149171608 0.7815936235084746 0.6608687195198497
11 -0.9624356113457162 0.8902552585930169 -0.542562378846529
74 0.9357343384108341 -1.3042888020853498 -1.2010844403095216
56 -0.16433631928603418 1.4725704547203833 0.23634680186951754
12 0.14159362715697535 -1.3347988303773932 1.0715318170533286
46 -0.7405483935674411 0.15899122989048667 -1.1955350148660127
31 0.3374221738956374 -0.16361963280937353 1.3682716640647488
40 -1.5004128716704042 0.8702929882470246 -0.01926595385775804
86 -0.6709288142718245 -0.7405941670974435 -1.2544967565091685
50 1.3522454663918066 -0.325305788348261 0.1913400527885208
95 -0.04545416725565743 -0.6777674230126285 -0.19290127096196333
66 0.6247198683206071 0.21002151164947425 -0.5725728917586712
10 -2.1263162638046067 -0.6215824976320568 1.1101724914534263
76 -0.7917890844476049 1.010512211040758 0.7446149253804308
14 0.34266670275492717 0.5630480107756055 2.293622944122815
52 0.8738309308644884 -0.2961132494305237 -0.42823826269224924
60 2.197649095220796 0.5419112638483521 0.7983934128760308
26 -0.38406336690594167 0.6353837880976103 -0.32324883309368474
78 0.5099016698498251 -0.4881114680987011 -0.0352126112081313
80 0.11430188995592917 -0.4431149798234759 -0.34636023474319094
93 -0.3437260751726447 -0.8008905677100066 0.508386337684188
47 1.1493209056162612 0.5233542448848357 -1.1617307497272544
41 0.6212012805726855 -0.33995637751519076 -0.19879578099749337
