96
 Atoms. Timestep: 0
2 0 7.95642 4.74695
2 4.63304 0 11.358
2 0 4.63304 4.74695
2 7.95642 0 11.358
2 0 4.63304 8.47514
2 7.95642 0 1.8641
2 0 7.95642 8.47514
2 4.63304 0 1.8641
2 10.7421 8.43088 6.61105
2 4.15858 10.7421 0
2 1.84736 4.15858 6.61105
2 8.43088 1.84736 0
2 1.84736 8.43088 6.61105
2 8.43088 10.7421 0
2 10.7421 4.15858 6.61105
2 4.15858 1.84736 0
2 10.5201 6.29473 5.04003
2 6.29473 10.5201 11.6511
2 2.06934 6.29473 5.04003
2 6.29473 2.06934 11.6511
2 2.06934 6.29473 8.18207
2 6.29473 2.06934 1.57102
2 10.5201 6.29473 8.18207
2 6.29473 10.5201 1.57102
2 10.1594 8.65935 9.20274
2 3.93011 10.1594 2.59169
2 2.43004 3.93011 9.20274
2 8.65935 2.43004 2.59169
2 2.43004 8.65935 9.20274
2 8.65935 10.1594 2.59169
2 10.1594 3.93011 9.20274
2 3.93011 2.43004 2.59169
2 2.43004 3.93011 4.01936
2 8.65935 2.43004 10.6304
2 10.1594 8.65935 4.01936
2 3.93011 10.1594 10.6304
2 10.1594 3.93011 4.01936
2 3.93011 2.43004 10.6304
2 2.43004 8.65935 4.01936
2 8.65935 10.1594 10.6304
2 0 10.703 0
2 1.88643 0 6.61105
2 0 1.88643 0
2 10.703 0 6.61105
2 0 0 1.872
2 0 0 8.48305
2 0 0 11.3501
2 0 0 4.73905
2 11.2706 2.31295 2.18973
2 10.2765 11.2706 8.80078
2 1.31887 10.2765 2.18973
2 2.31295 1.31887 8.80078
2 1.31887 2.31295 2.18973
2 2.31295 11.2706 8.80078
2 11.2706 10.2765 2.18973
2 10.2765 1.31887 8.80078
2 1.31887 10.2765 11.0324
2 2.31295 1.31887 4.42131
2 11.2706 2.31295 11.0324
2 10.2765 11.2706 4.42131
2 11.2706 10.2765 11.0324
2 10.2765 1.31887 4.42131
2 1.31887 2.31295 11.0324
2 2.31295 11.2706 4.42131
1 11.0086 7.83654 8.10972
1 4.75292 11.0086 1.49867
1 1.5809 4.75292 8.10972
1 7.83654 1.5809 1.49867
1 1.5809 7.83654 8.10972
1 7.83654 11.0086 1.49867
1 11.0086 4.75292 8.10972
1 4.75292 1.5809 1.49867
1 1.5809 4.75292 5.11238
1 7.83654 1.5809 11.7234
1 11.0086 7.83654 5.11238
1 4.75292 11.0086 11.7234
1 11.0086 4.75292 5.11238
1 4.75292 1.5809 11.7234
1 1.5809 7.83654 5.11238
1 7.83654 11.0086 11.7234
1 10.1088 10.1088 3.30552
1 2.48067 10.1088 9.91657
1 2.48067 2.48067 3.30552
1 10.1088 2.48067 9.91657
1 2.48067 10.1088 3.30552
1 10.1088 10.1088 9.91657
1 10.1088 2.48067 3.30552
1 2.48067 2.48067 9.91657
1 0 1.60471 1.57853
1 10.9848 0 8.18958
1 0 10.9848 1.57853
1 1.60471 0 8.18958
1 0 10.9848 11.6436
1 1.60471 0 5.03252
1 0 1.60471 11.6436
1 10.9848 0 5.03252
96
 Atoms. Timestep: 2000
2 0.358627 8.33595 5.21862
2 5.22752 -0.302023 12.9874
2 12.5223 4.93964 4.27239
2 7.96961 0.646646 11.3001
2 12.6185 4.87706 8.42881
2 7.58224 -0.0162699 1.95568
2 0.592463 8.26662 8.94868
2 4.79531 0.742133 1.44614
2 11.5295 8.31388 6.38926
2 4.28891 11.07 -0.0293291
2 0.413379 4.79153 5.97154
2 7.75527 2.09673 0.101074
2 2.22855 7.61571 7.07923
2 7.72064 12.4015 13.5314
2 10.6062 4.54218 6.58918
2 4.4623 2.04233 -0.134187
2 11.3976 6.52602 4.65925
2 6.54547 10.8952 11.3706
2 1.2151 6.50315 4.27199
2 6.48234 2.39762 11.6545
2 2.20516 5.68865 8.28544
2 6.41104 2.20213 2.14314
2 11.6857 6.69234 8.6686
2 5.76433 11.9104 1.53786
2 9.02207 9.68448 10.2481
2 3.10942 11.4669 1.90211
2 1.84779 3.28881 9.08144
2 9.36108 2.10245 2.80064
2 3.00399 8.61484 8.9617
2 8.47618 10.7141 2.37608
2 9.69478 4.69941 8.92805
2 3.69245 2.06571 3.32396
2 1.81672 3.80024 3.64175
2 8.97797 2.3366 10.5438
2 11.0596 9.2142 4.12902
2 3.63939 10.4129 11.2212
2 11.2774 3.134 4.39169
2 3.586 1.64849 11.0838
2 2.6484 9.06794 4.27259
2 9.15348 11.1247 11.8024
2 -0.591247 10.4119 13.3041
2 0.620232 12.6779 7.00162
2 0.890571 0.59022 13.0177
2 12.3395 10.0657 8.53989
2 12.5735 12.731 1.36104
2 13.1331 12.8153 8.99395
2 0.410751 11.8071 11.0324
2 12.2256 -0.221759 4.67654
2 11.819 1.13154 2.50494
2 10.2493 10.7262 8.9995
2 0.841489 10.3538 2.08854
2 2.50428 0.773305 8.59707
2 1.63846 1.46069 2.16488
2 2.01604 11.0659 8.8645
2 11.2931 10.4523 1.75533
2 11.5157 12.3254 6.99692
2 1.38509 9.43124 10.7774
2 0.739218 1.47781 4.75101
2 8.27143 2.67977 7.87522
2 9.79915 11.4215 4.2988
2 11.7299 9.81932 10.8041
2 10.042 0.613707 4.81429
2 1.03884 1.42092 10.5044
2 1.78743 11.7331 4.43529
1 12.128 8.1945 7.98697
1 4.36308 12.4571 0.845904
1 0.948259 4.65537 7.68516
1 8.06655 1.36203 1.65907
1 1.96218 7.33143 8.73582
1 7.30263 11.7673 1.28352
1 11.0988 5.28007 8.12184
1 4.68175 2.23737 1.92371
1 0.87471 5.06159 4.45235
1 8.12969 2.38427 12.1315
1 11.782 8.05555 5.06531
1 4.92027 11.2536 11.88
1 11.1531 4.73565 4.98166
1 4.94952 1.20498 12.2088
1 1.89977 7.55371 5.15792
1 7.83473 12.1441 11.8021
1 9.96435 10.4466 2.95981
1 2.62421 10.0906 9.78794
1 2.03669 2.24713 3.59983
1 8.81491 3.40484 9.16212
1 2.16267 10.6021 3.03792
1 10.0589 10.6706 10.6141
1 10.6455 1.72037 3.86925
1 2.62943 1.7093 9.8339
1 0.316819 1.27158 1.20102
1 11.6579 11.5681 8.44119
1 12.7092 11.2067 0.974455
1 1.56127 12.5816 8.34231
1 0.0829803 10.1646 11.4421
1 0.617917 -0.292442 5.29046
1 0.575828 0.24227 11.5753
1 10.8424 12.1346 5.26765
96
 Atoms. Timestep: 4000
2 -0.348977 7.41942 5.21525
2 4.50074 0.060557 11.5921
2 -0.34821 4.34384 4.68924
2 8.3599 0.573513 11.5098
2 12.7711 5.34214 9.26368
2 8.23018 -0.00146729 1.1227
2 0.195471 7.72823 9.13333
2 4.41512 13.0227 1.67146
2 11.7848 8.24766 6.80797
2 4.53203 11.4441 13.039
2 1.42895 3.97041 6.8854
2 8.02528 2.13955 -0.170382
2 1.46324 7.74919 6.56547
2 8.40148 11.6079 -0.403616
2 10.7985 5.08725 6.05725
2 4.21688 2.2376 13.825
2 11.1947 6.40761 4.44271
2 6.73299 11.5323 11.4253
2 1.31158 6.02877 4.53034
2 6.17558 1.82059 11.774
2 1.8464 6.22847 8.82369
2 5.87132 1.66112 2.09466
2 11.228 6.5974 8.27221
2 6.40306 10.655 0.715366
2 12.1349 10.2198 11.1173
2 3.69982 10.1194 1.77022
2 1.07839 3.95615 9.82156
2 8.79508 1.76087 2.42085
2 2.08373 9.13509 9.57064
2 9.13071 10.692 2.23202
2 9.25407 4.76081 8.45518
2 3.13599 2.48861 2.37845
2 1.88523 3.78175 3.98675
2 8.1136 2.92438 10.557
2 10.8591 8.97653 3.27516
2 3.89556 11.5724 10.3341
2 10.2068 3.27548 4.52902
2 2.9156 2.29151 10.831
2 2.40706 8.48434 3.56443
2 9.57288 11.0455 11.0978
2 0.532463 8.37693 12.6329
2 1.56403 13.0852 6.55118
2 13.1361 1.12998 0.164731
2 11.4916 9.89343 8.57731
2 12.9354 -0.580533 2.35874
2 -0.292711 12.1669 8.52893
2 -0.204824 12.3669 -0.354275
2 -0.157468 12.4508 4.69401
2 11.3234 1.87821 2.62642
2 10.8017 11.7381 9.09743
2 1.04483 10.307 1.59187
2 1.05864 1.33644 8.53088
2 0.49362 1.42394 2.94071
2 2.22761 11.6908 8.77484
2 11.6251 11.3571 1.36189
2 11.8978 12.0127 6.43379
2 1.42485 10.7135 11.5783
2 1.47009 1.02648 4.6747
2 11.75 1.96693 12.4169
2 11.3207 10.9011 3.77423
2 12.0666 12.2933 11.4109
2 10.6503 0.364121 4.13499
2 0.321726 1.42308 11.1928
2 2.47526 10.9627 3.9341
1 11.93 8.15188 8.55107
1 4.54572 11.4258 0.927384
1 1.21166 4.75489 8.6093
1 7.62135 1.5874 1.26626
1 1.67285 7.844 8.44813
1 7.88308 11.3549 1.11054
1 10.1808 5.80341 7.52707
1 4.31894 1.4509 1.47079
1 1.21207 4.54103 5.32679
1 7.86652 1.92388 11.807
1 11.3327 7.90781 4.8832
1 5.11075 11.7704 11.4224
1 11.389 4.58555 4.65712
1 4.50097 1.89998 11.9551
1 1.47474 7.78511 4.91828
1 8.36089 11.9655 11.8249
1 10.6677 10.477 2.39702
1 2.39925 10.7866 10.1638
1 1.86841 2.149 3.61275
1 8.30659 3.94325 9.09228
1 2.15003 9.98987 2.74994
1 11.0066 11.3682 10.7312
1 10.0838 1.86898 3.55469
1 1.28586 2.04196 10.2008
1 12.7293 1.11804 1.89415
1 11.5641 11.3242 7.81945
1 0.0386864 11.4585 1.03216
1 1.10132 -0.48899 8.03277
1 0.144483 9.68658 11.4977
1 1.73929 12.458 4.98006
1 12.6577 0.452753 12.4663
1 11.4028 12.241 4.7702
96
 Atoms. Timestep: 6000
2 12.8151 7.43689 5.6733
2 4.01855 13.0603 11.8566
2 12.7693 4.67399 4.46402
2 6.07693 0.276695 11.1718
2 -0.0115649 5.15958 8.51124
2 8.00099 13.0206 1.45985
2 0.312369 7.9877 8.53781
2 3.70658 12.3004 1.0095
2 11.2331 8.6683 6.60912
2 5.08192 8.62084 0.81548
2 1.4682 3.55936 6.8047
2 8.23451 1.24597 13.2772
2 2.13927 7.74939 6.88538
2 8.07079 11.7135 12.9521
2 10.4401 4.30203 5.99997
2 4.30189 1.58952 13.6157
2 11.0688 6.29948 4.48525
2 6.22121 11.1585 11.9028
2 1.41714 5.64239 5.29101
2 6.36482 2.4626 11.8435
2 2.31497 6.24735 8.62123
2 5.92226 1.30816 1.56471
2 11.6466 8.88706 9.75165
2 6.51861 10.8612 1.20048
2 11.6135 11.8497 10.6893
2 4.2602 9.80622 2.92692
2 2.15567 3.82506 9.37809
2 8.77803 2.08363 1.68007
2 2.57424 9.01311 9.58874
2 9.13152 10.3422 2.40827
2 11.245 3.90239 8.81913
2 3.71178 1.51292 2.55141
2 2.07089 3.17787 4.18372
2 9.00549 3.22832 11.1887
2 11.1613 9.16395 3.94749
2 3.4379 10.8557 11.0694
2 10.2966 3.52982 3.37503
2 3.47297 2.38886 10.769
2 2.131 8.19436 4.37814
2 8.63573 -0.224092 11.18
2 11.9434 8.92629 11.7295
2 1.596 0.198678 6.26947
2 12.2784 2.24073 -0.237395
2 12.1265 10.3571 8.28097
2 0.259628 11.043 3.31759
2 12.9493 12.7362 7.7705
2 -0.097203 12.6818 1.29941
2 12.8993 -0.29594 4.49737
2 11.2588 1.49349 1.53758
2 10.5234 12.6599 9.00402
2 2.0826 9.90538 2.23229
2 1.80235 0.831868 9.13008
2 1.09328 1.55036 2.26201
2 1.82882 11.2735 8.87272
2 11.9346 10.1157 2.03651
2 10.8652 12.3426 6.37838
2 0.585495 10.4816 11.3999
2 2.2236 0.256233 3.88122
2 11.3391 3.15748 11.0603
2 10.6448 11.3894 4.44288
2 10.0644 1.4461 10.3836
2 10.4273 0.967672 4.01164
2 1.2958 2.67137 11.1446
2 1.92383 10.342 4.61176
1 11.9357 8.72507 8.23751
1 4.73282 10.4748 0.887012
1 1.73786 4.81472 8.09127
1 7.25694 1.06228 0.831644
1 2.13217 7.85052 8.52909
1 8.19993 11.269 1.21568
1 11.4944 4.8596 7.4477
1 4.30255 0.673195 1.24736
1 1.06444 4.07866 5.3213
1 7.80998 2.20463 12.077
1 11.1655 7.93606 5.21633
1 4.5344 11.3532 12.1792
1 10.6517 4.78852 4.561
1 4.75237 1.39872 11.9976
1 1.63198 7.13995 5.55325
1 7.30059 12.2596 11.4842
1 10.5312 10.4965 3.06196
1 2.09327 10.3074 10.3657
1 2.18081 1.8028 3.3036
1 10.1295 3.02422 9.93186
1 2.81829 9.29513 3.57506
1 10.0481 12.7143 10.6293
1 9.93456 2.32768 2.63409
1 1.92978 2.36681 9.84216
1 12.9455 1.49865 1.27149
1 11.4739 11.8653 7.81568
1 0.328824 10.7028 1.62984
1 1.4785 12.7805 7.79958
1 12.0798 10.2906 10.9309
1 1.10176 12.1261 4.56085
1 12.4827 2.44432 11.9813
1 11.3082 -0.219536 4.69548
96
 Atoms. Timestep: 8000
2 0.149395 7.35259 5.91342
2 4.98533 12.7494 12.3575
2 0.396632 4.23548 5.01908
2 8.55704 3.06432 11.8947
2 0.150305 4.36386 7.56743
2 7.94176 12.4552 1.43609
2 0.640801 7.43926 9.87875
2 4.52544 12.2628 1.11574
2 11.9238 8.81311 6.90543
2 4.05795 10.3229 13.0583
2 2.19571 3.9681 6.69245
2 8.36158 1.40383 0.326934
2 2.14191 7.77487 6.9467
2 7.4516 10.4093 12.9833
2 10.4594 4.49535 6.38803
2 5.6092 1.88225 -0.200585
2 11.2494 6.49889 4.80244
2 5.87287 10.6551 11.2347
2 2.62015 5.6831 5.28981
2 6.57725 1.38231 11.1683
2 1.93519 6.48674 8.59569
2 5.80127 1.17295 2.17071
2 11.8569 9.80936 9.8952
2 6.22628 10.3102 1.34756
2 10.8601 11.5896 11.5857
2 3.96117 10.0278 2.61046
2 1.60352 3.9012 9.53724
2 8.44462 2.03436 2.66164
2 1.54832 9.94743 7.81207
2 8.50615 10.0469 2.31841
2 11.4313 3.18314 8.83441
2 3.09887 1.22538 1.91118
2 2.26587 3.22068 3.90406
2 9.342 0.606746 11.613
2 10.6194 9.06301 4.59366
2 3.32838 11.4936 10.7382
2 10.5557 3.53722 4.21607
2 3.37589 1.78029 11.1401
2 2.3768 7.84874 4.20818
2 8.78681 11.3625 10.9143
2 12.6889 10.3798 12.9932
2 0.742652 11.8262 5.79783
2 12.4715 2.3193 0.334769
2 9.79889 10.2739 8.32861
2 1.06382 11.9417 2.35191
2 12.2845 10.9262 7.59941
2 12.7898 12.7467 0.755816
2 12.5103 0.250317 3.95994
2 10.8289 2.05412 2.21623
2 9.17985 12.1719 8.81526
2 1.94366 9.83011 1.67443
2 1.16532 1.70302 9.56266
2 0.6337 2.04316 2.52669
2 1.50253 -0.452851 8.54308
2 11.7231 10.1216 1.90765
2 9.87903 12.3624 5.85589
2 0.744518 11.8818 10.5469
2 2.80783 0.0105315 3.8382
2 12.1858 3.06509 10.9075
2 10.6549 11.9273 3.25777
2 11.5062 0.400542 9.80099
2 10.6229 1.2189 4.61119
2 2.15447 3.7311 11.6879
2 1.43472 10.6875 4.03714
1 11.2791 9.87062 8.28818
1 4.61424 10.4806 1.15428
1 1.57741 4.7217 8.2528
1 7.51603 1.17941 1.85855
1 1.44816 8.30923 8.47918
1 7.86902 10.7538 1.10366
1 11.1926 4.20196 7.66927
1 4.4986 1.01208 1.23148
1 2.07545 4.27064 5.04131
1 8.13993 1.57699 11.8983
1 11.2808 8.04919 5.6346
1 4.58871 10.9769 11.6596
1 11.3802 4.82903 4.87219
1 5.01971 1.36374 11.7396
1 1.94705 7.15329 5.50775
1 7.46499 11.1504 11.6255
1 10.2516 9.98949 3.12612
1 2.0608 12.5108 10.1763
1 2.05441 1.92585 3.14494
1 12.1709 1.89653 9.73199
1 2.46608 9.27844 3.40495
1 9.94728 12.5372 10.2273
1 9.82943 2.11302 3.59456
1 2.31505 2.70639 10.4344
1 12.4114 1.4106 1.50311
1 9.00764 11.6555 7.28116
1 0.192648 10.6582 0.973651
1 0.866111 11.5174 7.26789
1 12.4868 10.5691 11.3371
1 1.09541 12.2966 4.0095
1 0.159915 3.20429 12.5104
1 10.9438 -0.239303 4.69823
96
 Atoms. Timestep: 10000
2 0.462599 7.6247 4.24592
2 3.61482 0.874436 12.532
2 12.1961 4.1694 2.58137
2 10.3295 3.58949 3.85784
2 0.954306 5.50202 7.46359
2 7.63821 12.1853 2.53067
2 3.63591 8.08302 6.67173
2 5.1878 12.5523 1.84684
2 12.0898 8.29439 7.02624
2 4.52515 11.4336 -0.54519
2 2.91316 4.91746 6.42072
2 7.23189 1.12676 0.22266
2 3.49729 7.45176 5.30685
2 6.57891 9.73867 11.2936
2 11.7099 4.49148 5.74093
2 4.24325 1.8151 0.705051
2 11.5709 6.3775 4.78372
2 6.42703 0.154638 11.4755
2 2.17823 5.6628 3.95319
2 5.76416 2.54417 11.986
2 2.62432 6.96795 8.06215
2 6.22125 1.18805 2.20908
2 9.83086 10.1402 10.4344
2 5.96642 10.6448 1.92776
2 10.6117 12.0241 11.4527
2 3.5607 10.5918 1.84696
2 1.94975 4.97191 9.72554
2 8.97799 1.31505 2.42077
2 3.30318 9.99152 7.62622
2 8.49537 9.67359 2.51253
2 11.5902 4.03877 8.64444
2 3.64828 1.31268 3.73218
2 2.10338 2.15994 4.76278
2 8.83833 0.980625 11.7207
2 10.6378 8.70498 4.68303
2 2.39926 11.5538 11.251
2 0.423562 3.94133 4.73422
2 3.08124 3.59609 11.7018
2 2.30037 8.58221 2.88509
2 8.44565 11.8103 11.0171
2 11.2461 9.83189 12.4104
2 1.26381 10.7999 5.05751
2 12.7945 1.72562 0.462107
2 11.7484 10.0919 8.60953
2 -0.213663 10.0448 3.983
2 1.34669 8.37411 9.02714
2 12.3431 11.9941 0.735498
2 12.0028 12.0716 3.95344
2 11.4201 0.916162 3.00289
2 10.0152 12.3528 9.18177
2 0.387003 9.74476 0.879286
2 0.362625 3.47122 10.2097
2 2.57743 12.5852 6.28881
2 1.67643 11.0496 8.37116
2 10.6633 10.2746 1.64832
2 10.7823 11.8509 6.66655
2 12.6399 11.3216 10.4049
2 1.19403 0.0493313 4.34932
2 11.7543 4.33416 12.7363
2 9.99017 11.5112 4.169
2 10.6051 1.67508 10.8455
2 9.93954 0.804917 4.76971
2 0.953851 3.2081 12.2867
2 1.14836 11.3653 2.17402
1 12.7697 8.45956 8.52632
1 4.69551 10.9106 1.04869
1 2.46217 5.36418 8.14265
1 7.65616 0.553805 1.58467
1 2.72561 8.44898 8.15614
1 7.28766 10.4029 2.14337
1 12.3193 4.58284 7.20703
1 4.4985 0.981401 2.44482
1 2.27028 4.18592 4.85306
1 7.03055 1.50082 12.1914
1 12.1351 7.93343 5.4176
1 3.79407 12.4045 11.9239
1 11.7208 4.56831 4.06151
1 4.06673 2.52209 12.6286
1 2.3278 7.28654 4.10201
1 6.93746 11.435 11.5598
1 10.0645 10.0305 3.56198
1 1.33847 10.9051 10.2446
1 2.68513 0.691969 4.97202
1 11.5296 3.27412 10.3068
1 1.88895 10.0015 1.76667
1 9.6097 0.135439 10.8314
1 9.89624 1.96091 3.66735
1 1.7883 3.68756 10.9789
1 12.0808 0.63333 1.56757
1 10.7556 11.2494 8.21044
1 11.6971 10.4326 0.289558
1 2.3162 10.9629 6.32908
1 11.1179 10.6249 11.0377
1 0.553495 11.5834 3.82863
1 12.6871 3.01115 13.0344
1 10.7238 12.3774 4.9996
96
 Atoms. Timestep: 12000
2 12.1689 8.02243 3.3133
2 4.61233 12.4804 12.3456
2 0.782782 4.19887 3.8885
2 10.3612 3.61117 3.44171
2 0.997997 5.15865 8.50005
2 5.65935 10.3044 12.6957
2 0.432206 6.6626 6.13625
2 3.78015 11.2447 2.54566
2 9.79578 8.62468 4.53301
2 3.53622 10.1884 0.285441
2 3.11045 4.51505 7.95455
2 7.81268 0.611044 13.2797
2 0.644995 6.54332 4.83258
2 8.34976 11.9987 8.88409
2 12.4272 4.23736 5.97537
2 3.13105 1.75836 2.2388
2 11.1496 5.90155 4.12931
2 7.12369 0.946952 10.2701
2 2.81889 4.57762 4.93889
2 5.68276 1.65039 12.0652
2 1.8947 7.214 8.70838
2 5.42426 0.943828 1.80386
2 11.5194 10.9665 9.48761
2 5.51122 9.20987 1.77775
2 11.2671 0.223544 10.5359
2 2.74766 8.99657 2.99863
2 2.43762 5.04521 10.5078
2 8.27588 1.85584 2.33267
2 1.82651 8.35786 7.01561
2 8.10124 9.85584 1.13336
2 12.0243 2.97948 8.13976
2 3.90764 0.637922 3.95484
2 4.02318 2.18453 5.42814
2 8.81985 2.03967 11.4511
2 9.73271 8.46827 2.47993
2 3.7204 10.3702 10.344
2 1.68717 2.89923 6.88272
2 3.06836 2.45943 11.6541
2 1.64205 7.02866 3.07138
2 5.12419 12.0559 9.2414
2 11.9744 11.2349 12.3713
2 4.28051 1.47485 9.90333
2 0.940754 3.02713 1.75731
2 10.9554 11.7834 7.37846
2 12.5103 10.6798 6.16351
2 11.9446 8.77324 7.86769
2 0.0622795 0.0260593 1.91374
2 12.1313 12.2884 4.62917
2 10.6222 2.20176 1.95339
2 9.8345 1.03491 8.69611
2 0.708184 9.97803 1.8136
2 0.621065 3.51984 10.3169
2 3.90069 0.734365 6.89162
2 2.71535 11.6839 8.3256
2 10.7484 10.2549 1.41717
2 9.06487 12.11 5.52679
2 1.02495 10.6716 10.1728
2 2.01811 12.5275 5.57855
2 2.76507 4.79294 2.31082
2 9.27229 10.9643 3.50902
2 11.4625 5.42483 9.61643
2 10.2007 1.12636 4.3138
2 1.74933 3.42014 13.1146
2 1.31215 9.9323 4.48982
1 11.7068 10.4027 7.93254
1 4.01116 9.70108 2.08677
1 2.37654 5.81542 9.13825
1 7.07316 0.629931 1.72205
1 0.680517 7.55953 7.55545
1 6.54 9.57119 0.644363
1 0.536516 3.85344 7.37892
1 3.92679 0.322249 2.42898
1 3.31452 3.68673 6.468
1 7.26505 1.27688 11.8537
1 10.632 7.44715 3.49829
1 4.17278 10.8647 12.0964
1 11.5361 4.30276 4.4033
1 4.20613 1.25672 11.3833
1 2.07701 5.43257 3.76479
1 6.86563 12.0085 9.28034
1 9.29323 9.93052 2.33967
1 2.34748 10.2458 9.32922
1 3.48 0.544451 5.37774
1 11.5095 3.45846 9.87703
1 1.12518 8.84224 3.03683
1 10.1146 1.75647 10.6382
1 9.74716 2.20078 3.32067
1 1.89495 3.83599 11.2714
1 12.305 1.91699 1.76322
1 9.17099 12.6357 7.38149
1 12.0414 11.2488 1.19443
1 3.77491 0.470939 8.5027
1 12.4046 11.3906 10.8289
1 1.07563 11.4125 5.191
1 2.554 3.16563 1.54789
1 10.4588 12.0612 4.44253
96
 Atoms. Timestep: 14000
2 12.2422 8.22242 3.64084
2 5.56968 0.322156 11.9027
2 0.405569 5.05447 4.87156
2 10.0058 3.65001 3.53015
2 0.9184 4.63156 8.42026
2 6.00241 10.6358 0.187926
2 2.7809 7.75024 6.09677
2 3.95704 11.5541 3.83721
2 11.3473 9.00987 6.0759
2 3.64947 11.0074 1.0827
2 3.21926 4.27856 7.71855
2 7.81296 2.29202 12.1648
2 3.04748 6.73238 5.05917
2 7.50432 10.6132 8.04253
2 11.0384 4.56834 6.57431
2 3.45074 3.59002 2.10477
2 10.6065 6.47968 5.17304
2 7.13185 0.28298 10.66
2 2.67373 4.70512 4.53821
2 6.16519 1.98765 9.96955
2 2.19024 6.61285 8.00223
2 5.74387 2.45377 1.56264
2 11.4848 10.7055 8.84681
2 5.48248 10.508 2.69935
2 10.9323 12.2972 10.2868
2 2.65412 9.32064 2.41675
2 2.79371 5.6053 10.5045
2 8.298 2.55302 1.27476
2 0.179734 7.33954 5.77166
2 7.91245 9.36733 2.25738
2 12.7838 2.06304 8.71822
2 4.05057 1.15871 3.5963
2 2.76812 2.1798 5.53626
2 9.23298 1.29442 10.0935
2 9.88317 8.77558 4.28136
2 3.39404 10.6654 11.8844
2 1.06732 3.60001 6.53842
2 4.18996 3.01126 11.2048
2 1.65525 7.26837 3.20375
2 5.2813 11.1114 9.35599
2 11.8074 10.7275 12.2311
2 3.86336 1.01666 9.83072
2 1.05252 2.56456 1.34676
2 10.0248 9.73436 7.62041
2 0.0356758 10.7742 6.55458
2 0.479709 8.80898 8.26826
2 12.2331 -0.0724003 1.59087
2 11.4383 12.2783 4.40948
2 10.9665 2.4291 1.61778
2 9.12521 12.3181 7.73185
2 0.368747 9.73761 2.07076
2 1.7706 2.3549 11.2037
2 4.00026 0.575428 6.77411
2 2.91721 11.6024 9.24929
2 10.1198 10.1558 1.43418
2 8.86904 11.4778 5.57373
2 0.995274 10.5905 10.3562
2 1.57731 12.4629 4.96143
2 2.20468 5.17683 2.54585
2 9.44818 11.4378 2.94594
2 -0.323652 1.01113 12.0627
2 9.07139 1.22754 3.59635
2 2.24334 4.20912 12.9751
2 1.1433 10.5361 3.83544
1 11.5545 9.87644 7.52946
1 3.87845 10.4413 2.69248
1 2.5889 5.41142 8.81307
1 6.76997 2.11436 0.513051
1 1.2096 7.46872 7.10172
1 6.52672 10.078 1.61544
1 12.3849 3.48137 7.63451
1 4.51033 2.4583 2.88712
1 2.64615 3.94698 6.26841
1 7.78971 1.86088 10.432
1 11.147 7.93313 4.96119
1 4.57103 11.3713 12.8516
1 10.841 4.90109 5.02443
1 4.74846 1.6306 10.7556
1 1.79436 5.7699 3.9975
1 7.05472 11.2108 9.77489
1 9.27348 9.83633 2.74009
1 2.50464 10.6835 10.3836
1 3.23649 0.51044 5.31936
1 0.405658 1.72264 10.43
1 1.24126 9.07082 3.32127
1 10.0667 0.46274 9.00521
1 9.46883 2.47221 2.39188
1 2.80208 3.74629 11.3177
1 12.2087 1.43643 0.961194
1 8.82171 10.6144 7.01967
1 11.6332 10.7189 0.935984
1 4.07628 0.0322235 8.36815
1 11.6028 10.6968 10.4845
1 0.463069 11.3969 5.08997
1 1.89699 4.03688 1.57682
1 9.65769 12.2457 4.42642
96
 Atoms. Timestep: 16000
2 11.8049 8.3297 4.08235
2 4.24644 0.823835 11.6138
2 0.50244 4.98558 4.78251
2 10.423 3.92419 3.09005
2 0.634572 4.70863 8.56065
2 6.26892 0.282136 1.4469
2 2.83143 8.94827 9.09672
2 4.05639 10.7498 3.58095
2 10.3946 8.52109 6.48194
2 3.41649 11.2888 0.752284
2 3.14309 3.24505 7.61765
2 7.33987 1.92274 11.9039
2 2.6397 5.5443 3.66283
2 7.74493 0.332231 7.81243
2 11.1494 4.06178 5.64254
2 3.3673 2.40668 2.69651
2 10.3913 6.70247 4.536
2 7.36223 12.4061 10.2057
2 2.37036 4.10314 5.55839
2 6.13388 2.05498 9.51123
2 2.74596 6.31735 8.3044
2 5.77999 2.49087 1.26363
2 10.9753 10.0057 9.60317
2 5.80764 10.0574 1.56907
2 11.982 12.2235 11.1398
2 2.50278 9.44555 2.50369
2 2.55287 4.32705 9.99013
2 8.36764 3.23908 1.20197
2 2.06622 7.17297 6.41359
2 8.19008 10.9234 2.45711
2 11.5371 2.93496 8.26086
2 4.76294 0.415759 3.69558
2 3.27374 1.47918 5.08535
2 9.00946 2.44174 9.35063
2 9.73679 9.31563 3.62736
2 2.80838 11.1337 11.4953
2 1.11521 2.65748 6.1256
2 3.09557 2.19859 10.4825
2 1.43375 7.11178 4.20555
2 5.02103 11.8686 8.59198
2 12.0114 9.80403 12.4191
2 4.07869 1.33318 8.65454
2 1.09336 1.65732 2.02274
2 9.83415 10.2735 7.70158
2 0.224809 10.8439 6.86271
2 0.699373 8.9142 8.00321
2 11.9983 11.5774 0.445035
2 11.6064 0.233845 5.40229
2 10.6434 2.15584 1.58527
2 10.2334 0.796586 8.4363
2 0.598069 8.73805 1.98828
2 0.771721 2.41928 10.8773
2 2.99647 12.1335 6.33205
2 2.54711 11.7034 9.20165
2 10.2945 9.4584 0.758524
2 10.4965 1.73492 6.49814
2 0.839188 10.3506 10.8858
2 1.96902 11.9296 4.55313
2 2.34001 4.66871 2.32121
2 9.95562 11.8169 4.51563
2 11.635 1.24016 12.6471
2 9.28514 1.8597 3.61533
2 2.66279 3.5159 12.9304
2 0.830357 9.70645 4.87971
1 11.4766 9.64541 7.89485
1 3.97092 10.2806 2.15109
1 2.51463 4.45504 8.44411
1 7.18701 2.68332 0.281594
1 2.22559 7.94582 7.97062
1 7.0491 11.1829 1.25252
1 12.0139 2.81438 6.60953
1 4.91133 1.69622 2.47612
1 2.65997 2.73426 6.156
1 7.71657 1.88179 10.3217
1 10.433 8.25386 4.86725
1 4.02888 11.6299 12.3494
1 11.0444 5.07503 4.13711
1 4.56019 1.88746 10.1314
1 1.92064 5.74445 5.23106
1 6.59433 11.9538 8.84519
1 8.99403 10.697 3.68846
1 2.67754 10.339 10.0443
1 3.71714 12.0453 4.64867
1 11.6277 1.75371 11.1064
1 1.2622 8.58036 3.62747
1 10.5351 2.0889 9.31462
1 9.40457 2.99432 2.42504
1 2.08449 3.29236 11.0747
1 12.0568 1.05724 1.34197
1 9.48776 11.9239 7.38461
1 11.9509 9.79495 0.994806
1 3.55711 12.3582 8.03346
1 11.6918 10.6157 10.8979
1 0.576481 11.48 5.47431
1 2.30949 3.23659 1.78034
1 9.95632 0.818847 5.19867
96
 Atoms. Timestep: 18000
2 12.2406 8.89363 3.65738
2 5.09643 12.4683 11.5765
2 12.7988 6.24665 3.82697
2 11.4342 3.57164 3.65916
2 12.3053 3.43692 9.25966
2 5.92318 -0.181943 3.15949
2 2.2913 8.93238 8.52256
2 2.13683 12.0432 1.20794
2 11.1246 9.50205 5.94677
2 3.51931 10.7549 13.1962
2 1.81911 4.21431 8.18
2 8.25419 2.03462 -0.18113
2 3.45303 6.21272 4.05254
2 8.60402 11.1296 9.12987
2 10.922 4.04885 5.64606
2 3.6594 0.635869 1.67082
2 10.65 7.0371 4.48264
2 7.4419 12.6153 11.4263
2 1.87701 5.2458 5.71084
2 6.64156 1.74735 10.8973
2 1.07417 6.51612 8.55016
2 5.63352 2.15278 1.61254
2 10.8951 10.7906 9.58883
2 4.77419 10.1767 1.83663
2 12.0304 0.101066 10.6996
2 2.10269 9.59167 1.94702
2 2.24675 4.23897 10.2709
2 9.09653 3.0474 2.16025
2 1.11032 7.40576 5.81414
2 7.60361 10.0851 2.5249
2 10.3979 2.26149 7.453
2 4.35858 1.30419 4.26622
2 2.64189 2.39185 5.91962
2 9.24851 1.48687 10.1326
2 9.75848 9.38661 3.84273
2 2.87419 10.5386 10.9034
2 -0.0393205 3.71819 6.87854
2 4.07741 1.97823 11.5422
2 1.59474 7.59829 3.50799
2 6.15823 11.953 9.23278
2 11.5841 10.4057 12.3382
2 5.05887 0.750772 9.20721
2 0.364648 0.968064 1.66677
2 11.0055 11.3591 7.23958
2 0.378343 11.4202 6.35362
2 0.0416474 9.13995 7.65611
2 12.1485 11.7972 0.286197
2 11.7752 12.0308 4.77629
2 10.8124 1.60537 1.44148
2 9.93657 0.601661 8.64853
2 12.4717 9.2021 1.33986
2 0.854121 2.32012 10.7611
2 4.47329 12.599 6.12431
2 3.01115 11.7263 8.75864
2 9.7188 10.8789 1.38316
2 11.8475 1.11001 5.38989
2 0.742895 10.7669 9.92316
2 1.76003 0.157527 4.74118
2 1.78601 2.49426 2.0734
2 10.1404 12.377 3.38184
2 12.3789 1.75329 12.4689
2 10.1691 1.7099 3.80487
2 2.19136 1.86339 13.0461
2 0.946314 10.3212 3.63913
1 12.215 10.2776 6.93492
1 3.09655 10.7312 1.10797
1 0.931003 4.708 9.38019
1 7.58931 2.57725 1.26604
1 1.16491 7.96749 7.5135
1 6.00831 10.8141 2.70811
1 11.5053 2.63483 6.25206
1 4.96804 1.15428 2.61035
1 1.65747 3.81782 6.37707
1 8.26053 1.1362 11.5012
1 10.8982 8.59059 4.45395
1 4.09331 11.1313 11.9029
1 11.4223 5.35045 4.71683
1 5.2459 1.02459 10.8937
1 1.77532 6.3803 4.47748
1 7.33007 11.4103 10.3477
1 9.18496 10.872 3.10988
1 2.14965 10.3134 9.38939
1 3.26611 0.83721 5.31237
1 12.2436 1.61566 10.7621
1 0.756458 8.90873 2.78296
1 10.7484 2.29407 9.24303
1 10.5924 2.64311 2.59702
1 2.24025 2.52599 11.4344
1 11.8844 0.927758 0.442133
1 9.88829 11.6951 8.47291
1 11.3576 10.3226 0.662671
1 4.6378 12.3182 8.20148
1 11.9575 11.186 10.7096
1 0.55873 11.5514 4.80346
1 2.11389 1.10077 1.16042
1 11.0721 0.443616 4.23938
96
 Atoms. Timestep: 20000
2 12.0754 7.96557 3.60786
2 3.9826 0.215134 10.9809
2 0.363213 6.1821 4.47568
2 11.0702 3.75916 3.59349
2 12.0417 4.82512 9.97242
2 6.19496 0.497725 1.83978
2 2.61578 9.36904 8.3773
2 2.54615 12.4556 1.49298
2 11.469 7.98612 5.5709
2 3.85885 10.7209 13.0435
2 2.36705 3.98979 8.71662
2 8.3146 2.16907 12.0266
2 3.19071 4.7405 4.67977
2 8.02086 10.3021 8.25233
2 11.3376 4.34072 5.84779
2 4.35601 2.14162 1.73181
2 10.6612 6.15753 3.84868
2 7.56272 0.369934 9.52048
2 1.49863 4.80037 5.85393
2 6.07067 1.99973 10.633
2 1.17576 6.47811 8.94366
2 7.2078 2.51303 1.91999
2 10.4463 10.3217 10.1871
2 4.70817 10.1721 2.05694
2 12.2871 12.2607 11.4039
2 2.11955 9.32197 1.79435
2 2.00479 4.39998 10.8937
2 9.25469 3.47607 1.22513
2 1.6945 6.76443 6.81184
2 7.08537 10.5288 3.12403
2 10.4957 3.00921 8.10433
2 5.9052 2.83814 3.98458
2 2.9724 2.52949 5.78593
2 9.2276 3.06361 10.2704
2 9.19393 8.79497 3.97395
2 2.95119 10.1239 10.2608
2 0.866255 3.04371 6.9697
2 3.27766 2.56075 10.8146
2 2.37343 7.14142 3.46385
2 5.97746 12.2904 7.71419
2 11.3698 10.1515 12.5547
2 3.66671 1.15417 8.47306
2 1.06457 1.23714 2.12551
2 10.6413 9.89508 7.45119
2 0.0800621 10.3166 6.03124
2 0.374503 8.95216 7.69452
2 11.6561 11.753 1.09318
2 11.614 11.9516 4.4371
2 11.5291 2.43084 2.00884
2 11.3024 2.28649 10.3683
2 12.6395 8.69832 1.71592
2 0.732122 2.50562 11.4294
2 3.80956 0.428892 5.76337
2 3.07823 11.7787 7.84141
2 10.147 9.78709 2.37474
2 10.8317 1.54212 5.87048
2 0.716053 10.8865 9.85225
2 1.61177 12.3438 3.85596
2 2.77756 1.81958 3.3904
2 9.20102 11.4982 4.10903
2 11.5186 1.01214 13.0036
2 9.53078 1.88709 3.7288
2 2.43897 2.90739 0.455833
2 1.5723 9.5841 3.90137
1 11.8031 9.21412 6.69931
1 3.17982 10.6897 1.35363
1 1.47852 5.25977 9.64825
1 7.71795 3.1537 0.438029
1 1.68382 7.95449 8.2887
1 6.12039 11.0595 2.06162
1 11.5241 2.88319 6.75959
1 5.81975 2.12345 2.55996
1 2.26652 3.62982 7.01292
1 7.9362 1.728 10.2619
1 10.5271 7.66047 4.1182
1 4.08571 10.7958 11.3064
1 11.6728 4.97501 4.33097
1 4.3258 1.585 10.0207
1 1.9387 6.08531 4.96119
1 6.83987 11.3345 8.9571
1 8.97425 10.341 3.14381
1 2.29719 10.8354 8.82734
1 2.54452 1.14405 4.81107
1 12.1633 1.40158 11.4609
1 1.22456 8.39374 2.96278
1 10.6537 3.66532 9.47749
1 10.163 2.9317 2.60897
1 2.05669 3.10144 11.9461
1 11.9606 0.861822 1.72127
1 9.66496 9.70579 8.61845
1 11.5522 10.1691 1.32636
1 4.2156 0.34814 7.18785
1 11.7883 10.9118 11.1175
1 0.676814 10.9735 4.52861
1 2.60688 1.70013 1.71075
1 9.94816 0.694254 4.70431
96
 Atoms. Timestep: 22000
2 12.136 8.61433 3.21083
2 4.3506 11.4174 10.9868
2 0.653025 5.92333 3.76512
2 10.7877 4.72035 2.72506
2 11.9875 3.47899 10.0841
2 6.31433 0.661253 2.22239
2 1.55109 7.91905 9.18765
2 2.66026 -0.00553768 1.80038
2 11.1616 8.06182 5.95702
2 2.81782 10.5748 12.9819
2 1.77741 4.1943 8.36615
2 8.28052 1.6865 11.8367
2 3.5198 6.85404 5.22383
2 8.27531 10.4301 8.47124
2 11.1881 4.58453 5.33738
2 4.56554 1.80079 2.03389
2 10.6792 6.85266 4.21445
2 7.93723 0.501527 9.09189
2 1.55129 5.23115 6.05825
2 6.14727 1.34421 10.4765
2 1.04868 5.51025 9.59454
2 6.83142 2.97857 0.672931
2 10.2917 9.7129 10.4493
2 4.91352 12.0658 1.61128
2 11.889 10.9939 9.66129
2 2.37734 10.5834 2.2662
2 2.11465 3.30674 10.7834
2 9.30951 2.63981 1.23184
2 11.421 6.14484 9.81736
2 7.86263 11.6517 2.99949
2 10.5671 3.76151 8.04899
2 6.92394 2.8582 3.23922
2 2.53599 2.4964 5.99333
2 8.86558 2.52228 9.60683
2 9.89898 9.72032 4.21354
2 2.71759 9.13164 10.6106
2 0.076725 3.18515 6.90179
2 3.90449 1.43319 11.5099
2 2.08078 8.40421 4.02123
2 5.68023 11.2845 8.56559
2 11.7004 11.0622 12.6893
2 4.10756 0.238088 9.01627
2 1.43576 1.71761 1.6175
2 10.3679 8.99476 7.94591
2 12.4423 10.6012 6.41885
2 -0.0626255 8.24091 7.86206
2 0.0106122 0.198034 0.162746
2 12.141 0.67891 4.7331
2 12.0227 2.85735 0.674073
2 11.0985 1.44097 9.18046
2 0.037622 10.6766 1.79305
2 0.367724 -0.0172694 7.22041
2 3.9379 12.4351 6.28761
2 2.3001 11.0055 8.73518
2 10.6122 11.3344 2.07186
2 10.1435 2.29763 5.63088
2 0.427947 9.65378 10.4711
2 1.8118 12.4326 5.6028
2 2.49409 1.41894 3.74081
2 9.60491 12.667 4.55767
2 1.15893 2.15768 12.5422
2 10.374 1.81531 2.77908
2 3.32526 1.99601 0.0248073
2 0.815723 10.8068 4.5639
1 11.6561 9.04287 6.97219
1 3.35901 11.3888 1.11328
1 0.954282 3.9714 9.80438
1 8.2147 2.51423 13.2849
1 0.0637413 6.62636 8.71544
1 6.14654 11.8826 2.76077
1 11.0088 3.44522 6.5618
1 6.05708 2.30173 1.90445
1 1.62194 3.72845 6.58883
1 7.61664 1.74063 10.3709
1 10.974 8.43426 4.40416
1 3.9732 10.1247 11.6342
1 11.6616 5.32356 3.90426
1 4.69154 0.288605 10.634
1 1.69225 6.90086 5.1293
1 7.23565 11.6507 8.60577
1 9.56875 11.4406 3.71255
1 1.48532 9.53381 9.61677
1 2.92606 1.08874 5.35511
1 11.7924 0.125329 8.61727
1 1.07399 9.72202 3.40253
1 10.5487 2.80152 9.42529
1 10.7619 3.19591 1.79985
1 2.53462 2.21447 11.8901
1 0.425881 1.54081 0.323573
1 9.50079 9.66507 9.10388
1 11.7533 11.8149 1.13912
1 3.94058 11.4591 7.96099
1 11.7831 10.2495 11.1934
1 0.308327 12.0158 5.60149
1 2.95773 1.40622 2.06937