LAMMPS data file via write_data, version 2 Aug 2023, timestep = 100000, units = metal

96 atoms
2 atom types
0 bonds
1 bond types

0.8464750219841628 11.742987647015799 xlo xhi
0.8464750219841628 11.742987647015799 ylo yhi
0.8890112320892571 12.333084432910779 zlo zhi

Masses

1 28.0855
2 15.9994

Atoms # full

58 1 2 -0.55 3.3134017318389133 1.0842166026577613 2.144081090696346 0 0 0
83 1 1 1.1 2.4948630417389888 1.185748801349194 3.5528238500141143 0 0 0
48 1 2 -0.55 0.8759475000930728 1.1396849735489383 3.4401214305294237 0 0 0
33 1 2 -0.55 2.903983644975207 2.7348596843742548 3.8434920626336173 0 0 0
72 1 1 1.1 5.983021034874172 3.116464600771313 2.0086306965671534 0 0 0
8 1 2 -0.55 4.540736895810776 3.242413867856479 2.803182172853597 0 0 0
22 1 2 -0.55 6.5899928036904525 1.575946342799186 2.0444018583702426 0 0 0
61 1 2 -0.55 9.92282203171872 2.483609760420036 1.956177869440375 0 1 1
96 1 1 1.1 10.392691234181168 1.0713498111704403 2.5758158069741195 0 0 0
73 1 1 1.1 3.1072141858357765 4.148697158378648 2.9730505971006616 0 0 0
38 1 2 -0.55 3.0062840590813824 4.436636731219711 1.3409114234839814 0 0 1
30 1 2 -0.55 1.4460837002655689 4.314254304948571 3.1886968999964975 1 0 0
24 1 2 -0.55 3.7538952493848314 5.635875239020316 3.2702374857865166 0 0 0
87 1 1 1.1 8.363453895769522 5.089269029541265 2.5499897322642004 0 0 0
32 1 2 -0.55 7.034653410765998 4.154136355119208 2.720574670858759 0 0 0
41 1 2 -0.55 9.094567143421436 4.645701191963607 1.1455959233625719 -1 1 0
45 1 2 -0.55 1.255310322995281 7.564225461111119 1.4661431242051413 0 -1 0
47 1 2 -0.55 3.207714539124912 7.162787967465532 1.173167731000932 0 -1 1
49 1 2 -0.55 1.3868927750729645 8.85667022791771 3.6611046305042607 1 0 0
34 1 2 -0.55 5.6272148425964374 6.583636013027054 1.6183823810692508 0 0 1
66 1 1 1.1 4.245520516171457 6.936669741729369 2.415174686802757 0 0 0
10 1 2 -0.55 4.0096528980360375 8.32261923210034 3.2646222690802875 0 0 0
70 1 1 1.1 8.286876733019705 8.282124126483286 2.2523121742188765 0 0 0
17 1 2 -0.55 8.04452479942848 6.698109761423746 2.73481947278995 0 0 0
23 1 2 -0.55 7.5089558220863175 7.834313316074645 12.242591928050103 0 0 0
91 1 1 1.1 11.26489201668096 7.854271629930673 2.825315308314018 -1 0 0
14 1 2 -0.55 9.954613387895279 8.541707758253832 1.9415895230783433 0 0 0
51 1 2 -0.55 2.969016508166641 9.616487751367206 1.150693289358938 0 0 0
68 1 1 1.1 6.81242313765223 11.054766591141789 1.2075335668079334 0 -1 0
6 1 2 -0.55 7.403571912558961 9.755862145636918 2.0884042726761836 0 -1 0
60 1 2 -0.55 10.525278636787135 11.022347891722852 1.2490152167567359 0 0 0
44 1 2 -0.55 9.178684209890537 11.494235808976018 3.559839851831613 0 -1 0
11 1 2 -0.55 1.6475718147828786 6.213836829636098 6.431181380769244 0 0 0
28 1 2 -0.55 9.559278731246451 4.614353266625508 3.5663130865797674 0 0 0
62 1 2 -0.55 11.410742749048392 4.483951974342319 5.602349228520834 0 0 0
77 1 1 1.1 11.098456650140157 4.960722826183291 4.0650671385975725 0 0 0
1 1 2 -0.55 3.1409474490028506 8.353977929186971 5.65673175066085 0 0 0
39 1 2 -0.55 8.239391503798188 8.980234910219977 3.7763524707152394 0 -1 0
55 1 2 -0.55 11.004410374742516 6.5818525765622224 3.8275104081321025 0 0 0
94 1 1 1.1 2.924313320258291 9.100998311706011 4.215152482690225 0 -1 0
64 1 2 -0.55 3.0523540407233596 10.733862059130036 4.318918744162844 0 0 0
9 1 2 -0.55 8.552696808397316 10.710412331397212 6.140329318946216 0 0 0
75 1 1 1.1 8.643371223320868 10.357429256444732 4.553594852972523 0 0 0
46 1 2 -0.55 3.3189303364442218 1.9661681972157588 8.631545024129458 0 0 0
92 1 1 1.1 3.467340937221901 3.5641627476747093 8.893960954536642 0 0 0
31 1 2 -0.55 8.260193079959908 2.475773213636953 6.876668837676842 0 0 0
25 1 2 -0.55 8.513875947080553 0.8984804938783019 8.768719841707927 0 1 0
13 1 2 -0.55 2.59155987702798 4.1718584166849375 7.638589400495193 0 0 0
79 1 1 1.1 1.1369752771950572 4.7855467668310085 7.1409227915454565 0 0 0
37 1 2 -0.55 4.961653393818867 4.1167479773795215 9.330543990465099 0 0 -1
59 1 2 -0.55 8.299938935671655 4.979592185253861 8.215802563564843 0 0 0
84 1 1 1.1 9.06609628666212 3.7807575864596554 7.445222931759097 0 0 0
3 1 2 -0.55 11.562609369588067 5.914971672007283 8.275839822147056 -1 0 0
50 1 2 -0.55 10.694866152870528 3.8315530619234486 7.472781571239358 0 1 0
81 1 1 1.1 2.384311526608764 7.59427262948915 6.865057302886866 1 0 0
35 1 2 -0.55 1.2509146852694453 8.656314977790188 7.372551540062334 1 0 0
29 1 2 -0.55 3.4174858702316016 7.14491301025242 8.066187006659375 0 0 0
82 1 1 1.1 4.205882339611598 7.713513665634994 9.38911444161425 0 0 0
54 1 2 -0.55 5.1713894868698 8.73191159014765 8.5722285666459 0 0 0
5 1 2 -0.55 8.104586473859506 7.594689403981951 9.173668590561128 -1 0 0
19 1 2 -0.55 1.537477549921537 10.742352180253164 8.992623110228916 0 0 0
90 1 1 1.1 2.9482573133356995 11.482233685537672 9.394511964301206 1 -1 0
76 1 1 1.1 5.7541377694759435 10.242492458774429 8.654957124737358 0 0 0
2 1 2 -0.55 4.378613984512758 10.681950117346908 9.389059146823001 0 -1 0
65 1 1 1.1 7.961469420064384 0.8931571854552762 7.217882344972285 0 1 0
42 1 2 -0.55 6.45860853934237 11.20977795505621 7.537440959376263 0 -1 0
36 1 2 -0.55 7.1740830684477075 10.026578713003897 9.463829453733535 0 0 0
69 1 1 1.1 11.508552073024564 9.41148415187925 8.680786417099057 -1 0 0
7 1 2 -0.55 9.871834858368974 9.613395091851267 8.662435424582856 -1 0 0
20 1 2 -0.55 5.6775143615456445 3.64981485601313 11.928945875029637 0 0 0
53 1 2 -0.55 7.094878499159684 2.760662363684121 9.909179089585745 0 -1 -1
95 1 1 1.1 8.234923111803136 1.616602274674861 10.212912174754734 -1 0 0
43 1 2 -0.55 9.45886235585943 2.535456024341654 10.767797545605283 -1 0 -1
89 1 1 1.1 9.99651010252192 3.3940197606481552 12.050287341922335 -1 0 -1
52 1 2 -0.55 2.6386469047896206 3.56938671234997 10.289119521595495 0 0 0
88 1 1 1.1 2.0037889918932645 4.41782091116151 11.511416150859823 0 0 0
27 1 2 -0.55 1.4824928103552173 5.825731388871542 10.891679786764897 0 0 0
78 1 1 1.1 6.2089059575867385 4.037549915417403 10.434515131380472 0 0 0
71 1 1 1.1 8.28617678652404 5.983216802076152 9.51290671414898 0 0 0
56 1 2 -0.55 7.031823549103546 5.547357096373316 10.569843264399893 0 0 0
63 1 2 -0.55 11.605339489650692 3.602695845275703 12.014125364597664 -1 0 0
15 1 2 -0.55 9.805709900615188 6.039766110232588 10.148506788223791 0 0 0
93 1 1 1.1 2.3202919415189736 8.332390223626952 11.827840788902055 0 0 0
57 1 2 -0.55 2.936174312469066 8.229127924443688 10.302822988695937 0 0 0
18 1 2 -0.55 5.157986180473512 6.901474005978163 10.479809069468224 0 0 0
74 1 1 1.1 6.3874199028551475 6.769292535180677 11.610576313580939 0 0 0
21 1 2 -0.55 11.59279064457709 8.095396956411562 9.694727425058733 -1 0 0
67 1 1 1.1 11.348423257662358 6.478180143972156 9.81075597541232 -1 0 0
4 1 2 -0.55 11.737240754209502 8.999869643805162 11.467228498760182 0 -1 0
16 1 2 -0.55 3.0116272000379585 11.676606045535419 11.006836263398945 0 -1 -1
85 1 1 1.1 3.702722755646565 11.039351566714046 0.8943111179722593 0 0 0
26 1 2 -0.55 5.292376483413899 10.738969085378823 12.130929619275193 0 0 -1
86 1 1 1.1 8.544885294527283 9.14848402664169 9.530606540165994 0 0 0
12 1 2 -0.55 7.771495215699799 11.422819151187337 11.354377865255245 0 -1 -1
40 1 2 -0.55 9.062779504791205 9.330478330233085 11.05754979053373 0 0 0
80 1 1 1.1 10.326331691524537 9.525442811841522 12.076943201208294 0 0 0

Velocities

58 0.37662567865997754 -0.786437115965362 1.0440610853158125
83 1.6730812823188652 -0.964561740502941 0.11953361522736392
48 -1.2366514180080033 0.6010330536010655 -0.9586390266175215
33 1.2199715241109776 0.1938081456688505 0.07172307706138052
72 -0.9528574584074312 -0.37938417371673083 0.8172631736615098
8 0.7475001270232133 1.2061957616079888 -0.6775869533979602
22 0.14513783275685002 1.6120507660105658 1.453972421635897
61 1.37060327578147 -0.384579876743566 0.8270910308007406
96 0.47058023589036346 0.8309009001041903 -0.5276984397269122
73 0.36835136823400144 0.4637182120683816 -0.9982584025083477
38 -0.27245909000082225 -0.015947149754977293 1.3265325155475425
30 0.15690449262197909 -0.9525039227739301 0.14977638408760915
24 -0.3025387404870904 1.4760783877159627 -0.6975007591200715
87 1.4334146205385305 -0.7237837387333567 -0.35241201194991495
32 0.25969844273455045 0.7502495911406883 0.22807279087234353
41 -1.6198407247099882 -1.9395797524258733 -1.2574993424792114
45 -0.7139490352185053 0.8146006073890593 0.40453031690074676
47 -0.5053009019460349 -0.0640317471294334 0.3645878447861911
49 -0.7780471072285409 -0.808925400047125 2.04360158943038
34 0.31591403122689604 1.9291509830233173 -2.133483500970437
66 0.2778760272866866 0.971322327854441 0.28980037207518716
10 0.3757049916843773 -0.7496192315531911 0.927243034651626
70 -1.1583466613748237 -1.1630501691626072 -0.9155780504712472
17 0.26776052603976597 -0.8156586558672145 1.7218265941744237
23 0.12845431496693827 -0.6955966091722096 0.401189316455252
91 0.5004966588454239 -0.3567865250697509 0.3835077098425823
14 -2.247294080874361 0.53023574398814 1.1932183520358461
51 0.5572311661692201 0.1958050893363028 -1.1066984577651926
68 0.9561846103646101 1.1026849361189108 -0.05201119493556266
6 -1.0370704230108216 0.24863867002840437 2.346307247018996
60 -1.1008633130266972 0.5093331388124488 1.4589500563521731
44 -0.7302279666811289 0.5318060844161465 0.9943129479089081
11 0.10585985212085885 0.19617127670404702 1.087228810939352
28 0.09034239490889431 0.366493776448841 -0.8234072648259972
62 0.2199616492494867 0.7783789293652854 -0.26489764706660107
77 1.1644410779155985 -0.6882621995705588 -0.574665203742718
1 -1.5992608354433913 0.6686963752064108 -1.8812745568748341
39 -0.8317328704599238 2.339961729430494 1.711494108308427
55 0.011028939894263765 -0.10816817917972607 -1.2140314142084512
94 0.06520351974567325 -0.41625290276065247 -0.6255946022328784
64 0.5456643296832269 -0.498847859343434 0.618842203861095
9 0.25397486202822916 -0.6891390776980361 0.868902564938801
75 0.6526899842474561 -1.0388467537434003 -1.4227222328225144
46 -0.6961517134415802 -0.578124204692076 0.8334879830046172
92 -0.7723919754446613 -1.118474709951527 -0.07014799229744072
31 -0.9082201932146429 0.2798387283694576 -0.5467259986637586
25 -0.7610839529766418 2.0496968902963433 1.8281405903729
13 -0.15538524413549384 0.7346065349969861 -0.5563850149773576
79 -0.12077501634050267 2.015507478176556 -0.06389441908043123
37 -0.2285802698478364 -1.408458751405039 0.5783200083476633
59 0.7012504228245465 -0.6536308394863966 1.8984373663465637
84 -0.08030460437371884 0.33278705055366986 -0.45551279767627456
3 -0.3831936377810257 1.0871891815946693 0.18658114716613394
50 -0.5382274056689373 -0.4808310837114144 -0.7654960114809539
81 -1.2561501073504309 0.1689266439989399 0.36715043925597934
35 1.2003474163269192 1.2200522735819206 0.21217933534350153
29 1.3139392240029304 -1.0775968007423484 -1.047339261522921
82 1.2833262463842274 -0.0039205799971943995 -1.1096712703104246
54 0.30866444244926333 -0.4598865481894807 -0.03814359020804725
5 1.695892580308069 0.8931688328107948 -2.317187817333289
19 -0.26161629087083216 0.6419248693594264 1.4300049973122448
90 1.2979615002103142 1.1556834476148437 -0.7540637099894311
76 -0.6940415011828103 -1.501242530887165 0.014995196628753602
2 1.245289323967853 0.2945101840580339 -0.18578948107808363
65 -0.8740430389283209 -0.176478631788318 0.20661817988149436
42 -2.24408208314703 0.9394353660614074 -0.9930256900065549
36 0.477494505608226 -0.7339435613601331 0.6934545506034616
69 0.1822344167030134 0.0635329725458076 -0.5957298766707467
7 0.18009518493463583 -1.5225647731434557 1.2180526922338124
20 -0.1963493759679007 -1.7571019688608254 1.2782100682769448
53 0.9482612931590748 -0.05106404329144851 -0.05668372987133118
95 0.4605059290074705 -0.5685140866499943 -1.3628061555949587
43 0.09201976804467975 0.24828489362355288 0.05331185918600765
89 -0.4822311289673569 -0.4111040053798156 0.4138169016279851
52 1.6170087408515337 0.945539439405023 0.3290005481440676
88 0.03910831715964196 0.2992716860551025 -1.1928912803286154
27 0.5630133648563049 -0.6740624026084686 -0.6235159758726688
78 -0.2624528092352429 -0.399843614174884 -1.648279339466822
71 -0.4056329354999817 0.9339686445254842 -0.24739255430354798
56 0.5153751363865527 0.07183205930679339 -0.06806053248314398
63 -1.5735824163168552 1.8409024614302407 -0.5227583897041302
15 -0.930772198745535 0.4194623991807615 0.27389009396761815
93 0.1902376394555375 0.09517050159254983 0.5492538051830425
57 0.2104496923313045 0.534583899419988 -0.2798013028087652
18 -1.5875973524370774 1.7045740028779126 -0.9113891565848795
74 0.8368243119646771 -1.221103886433753 1.2011776356361268
21 -0.193214400633987 -1.6207659057829291 0.7936654963920312
67 0.5321454715583155 -1.079895476082038 0.4152802737210681
4 0.40297237778837913 0.5919185668681493 0.6731552121771793
16 -0.2913412214429166 1.7991771417965448 -0.929636049256221
85 -0.2172196064829343 -0.25629409947247506 0.1790686283515487
26 -1.4775752352719553 -1.305382068139299 0.8159811983418283
86 -0.3412023488706088 -1.5929490239915707 -0.15507974315099915
12 0.464732746740082 -0.10824414522397482 -0.021220832626547274
40 -0.3412318154695372 0.3935959965887865 0.7170090306291061
80 -0.9739979986825271 -0.4671954673582789 0.09009968987623825
