96
 Atoms. Timestep: 0
2 0 7.95642 4.74695
2 4.63304 0 11.358
2 0 4.63304 4.74695
2 7.95642 0 11.358
2 0 4.63304 8.47514
2 7.95642 0 1.8641
2 0 7.95642 8.47514
2 4.63304 0 1.8641
2 10.7421 8.43088 6.61105
2 4.15858 10.7421 0
2 1.84736 4.15858 6.61105
2 8.43088 1.84736 0
2 1.84736 8.43088 6.61105
2 8.43088 10.7421 0
2 10.7421 4.15858 6.61105
2 4.15858 1.84736 0
2 10.5201 6.29473 5.04003
2 6.29473 10.5201 11.6511
2 2.06934 6.29473 5.04003
2 6.29473 2.06934 11.6511
2 2.06934 6.29473 8.18207
2 6.29473 2.06934 1.57102
2 10.5201 6.29473 8.18207
2 6.29473 10.5201 1.57102
2 10.1594 8.65935 9.20274
2 3.93011 10.1594 2.59169
2 2.43004 3.93011 9.20274
2 8.65935 2.43004 2.59169
2 2.43004 8.65935 9.20274
2 8.65935 10.1594 2.59169
2 10.1594 3.93011 9.20274
2 3.93011 2.43004 2.59169
2 2.43004 3.93011 4.01936
2 8.65935 2.43004 10.6304
2 10.1594 8.65935 4.01936
2 3.93011 10.1594 10.6304
2 10.1594 3.93011 4.01936
2 3.93011 2.43004 10.6304
2 2.43004 8.65935 4.01936
2 8.65935 10.1594 10.6304
2 0 10.703 0
2 1.88643 0 6.61105
2 0 1.88643 0
2 10.703 0 6.61105
2 0 0 1.872
2 0 0 8.48305
2 0 0 11.3501
2 0 0 4.73905
2 11.2706 2.31295 2.18973
2 10.2765 11.2706 8.80078
2 1.31887 10.2765 2.18973
2 2.31295 1.31887 8.80078
2 1.31887 2.31295 2.18973
2 2.31295 11.2706 8.80078
2 11.2706 10.2765 2.18973
2 10.2765 1.31887 8.80078
2 1.31887 10.2765 11.0324
2 2.31295 1.31887 4.42131
2 11.2706 2.31295 11.0324
2 10.2765 11.2706 4.42131
2 11.2706 10.2765 11.0324
2 10.2765 1.31887 4.42131
2 1.31887 2.31295 11.0324
2 2.31295 11.2706 4.42131
1 11.0086 7.83654 8.10972
1 4.75292 11.0086 1.49867
1 1.5809 4.75292 8.10972
1 7.83654 1.5809 1.49867
1 1.5809 7.83654 8.10972
1 7.83654 11.0086 1.49867
1 11.0086 4.75292 8.10972
1 4.75292 1.5809 1.49867
1 1.5809 4.75292 5.11238
1 7.83654 1.5809 11.7234
1 11.0086 7.83654 5.11238
1 4.75292 11.0086 11.7234
1 11.0086 4.75292 5.11238
1 4.75292 1.5809 11.7234
1 1.5809 7.83654 5.11238
1 7.83654 11.0086 11.7234
1 10.1088 10.1088 3.30552
1 2.48067 10.1088 9.91657
1 2.48067 2.48067 3.30552
1 10.1088 2.48067 9.91657
1 2.48067 10.1088 3.30552
1 10.1088 10.1088 9.91657
1 10.1088 2.48067 3.30552
1 2.48067 2.48067 9.91657
1 0 1.60471 1.57853
1 10.9848 0 8.18958
1 0 10.9848 1.57853
1 1.60471 0 8.18958
1 0 10.9848 11.6436
1 1.60471 0 5.03252
1 0 1.60471 11.6436
1 10.9848 0 5.03252
96
 Atoms. Timestep: 2000
2 12.8952 7.80254 4.43041
2 4.48701 12.3478 11.5222
2 0.0152254 4.50921 4.87687
2 7.50521 12.3354 11.8285
2 -0.209449 4.72152 9.14241
2 7.45922 -0.525578 1.97877
2 0.626858 8.34555 8.36791
2 4.18053 -0.346906 0.197314
2 11.4716 8.32676 6.89268
2 3.81227 10.7958 12.9807
2 1.2914 4.56335 6.5858
2 8.40605 0.634919 -0.472401
2 2.16927 8.17021 5.95819
2 7.67727 10.2147 0.164766
2 11.8147 4.83534 7.17385
2 4.2514 1.81101 12.979
2 10.8236 6.39838 5.56974
2 6.29736 10.4609 12.3605
2 2.13626 5.87786 4.11157
2 6.64863 1.39948 11.4985
2 2.10812 6.49885 8.35039
2 6.24368 2.0933 1.08274
2 10.9495 6.95205 8.67711
2 5.30306 11.2406 1.37776
2 9.46827 -0.305081 11.748
2 3.1683 10.5369 1.57363
2 2.41056 3.7213 8.70081
2 8.66616 1.62298 2.55226
2 3.13188 8.92987 8.6583
2 8.73589 10.3218 2.55888
2 10.1393 4.20963 9.62698
2 3.74022 1.10541 2.20233
2 2.45319 3.18271 3.7337
2 9.33103 1.69076 11.0134
2 11.0193 9.37548 4.08558
2 3.82748 10.0007 10.7176
2 10.7456 3.41715 4.41843
2 4.18123 2.21411 10.9901
2 1.91184 8.83133 3.42626
2 8.92868 10.5878 11.399
2 -0.0383117 10.9136 13.6485
2 0.721716 -0.0966644 6.61185
2 -0.109026 2.16535 13.0724
2 11.0428 12.039 7.00791
2 -0.223264 13.0565 1.62486
2 12.8504 0.4874 8.88856
2 13.1721 -0.339436 12.2542
2 12.4151 12.3493 4.98481
2 11.6789 1.77882 2.54241
2 10.1588 12.2288 9.42492
2 0.672415 10.4635 1.56638
2 2.04326 1.16934 8.7332
2 1.12562 1.63437 1.63621
2 1.99411 11.7844 8.92501
2 11.3111 10.7059 1.61497
2 10.1443 1.06758 9.11616
2 1.1098 10.4747 10.6855
2 1.44323 0.566779 3.99855
2 11.9351 2.49209 10.8632
2 10.0213 11.9654 4.04756
2 11.6613 11.0328 11.5538
2 10.1961 0.726002 4.71378
2 1.29832 2.00313 10.7965
2 1.34601 10.8661 4.40474
1 12.0768 8.11556 8.32059
1 4.08084 11.4068 0.491113
1 1.30785 4.91488 8.19593
1 7.89731 0.940553 1.2949
1 2.08832 7.97785 7.62375
1 7.21095 11.1939 1.56409
1 11.5072 5.16946 8.76529
1 4.50158 1.37857 0.595787
1 1.76608 4.22791 5.01757
1 8.12241 0.815591 11.8448
1 11.3358 7.86242 4.91597
1 4.77772 10.5819 11.7327
1 11.4014 4.9279 5.39259
1 5.07509 0.970703 11.5207
1 1.43386 7.60377 4.4549
1 7.80681 10.9064 12.6936
1 10.3311 10.4813 2.91018
1 2.58838 10.3167 9.73187
1 2.17816 1.55964 2.75958
1 10.4788 2.5154 10.3569
1 1.85947 10.4888 2.72373
1 10.1822 11.6017 11.2253
1 10.1146 2.11649 3.58262
1 2.65891 2.48447 9.84764
1 12.8727 1.2689 1.4615
1 11.1976 12.898 8.41999
1 12.7415 11.4687 1.12653
1 0.972741 -0.0961501 8.44151
1 0.0305276 11.3999 11.7843
1 0.739477 12.5673 5.28918
1 -0.118651 1.30508 11.6714
1 10.998 12.8577 5.40475
96
 Atoms. Timestep: 4000
2 0.176723 7.79585 5.43283
2 4.14451 -0.02818 11.2283
2 -0.123158 4.58879 4.23919
2 7.11428 10.4273 11.7805
2 11.8892 3.44355 8.73063
2 8.82438 12.0765 1.22758
2 12.3227 7.97707 8.9689
2 5.00702 12.5933 1.90855
2 10.6937 8.3354 6.35026
2 4.55393 10.768 0.0832501
2 1.27996 4.62728 6.81637
2 8.45684 1.86759 13.1864
2 1.77459 7.73946 6.97278
2 7.4298 10.9501 12.8815
2 10.6628 5.29581 6.28259
2 4.68779 1.88809 -0.109595
2 10.4126 6.32049 4.19087
2 5.55609 11.4487 10.9648
2 2.30013 6.13971 5.12803
2 6.71594 1.16921 11.2205
2 1.31924 5.98843 8.77982
2 6.64599 1.23714 1.37688
2 9.98546 6.47982 8.06635
2 6.46227 10.5735 1.71891
2 8.93156 0.178495 11.673
2 3.87945 9.91732 2.3739
2 1.78227 3.16822 8.84739
2 8.96331 1.54307 2.45928
2 2.07279 8.47015 9.64795
2 8.48251 10.2981 2.35652
2 9.58218 3.46432 8.67166
2 3.66008 1.65867 2.19545
2 2.05047 3.79132 4.02951
2 9.5936 2.72843 11.1968
2 10.8546 8.66709 3.81579
2 9.38898 10.3229 -0.0144558
2 10.2281 3.48984 4.02439
2 4.13304 2.0003 10.6835
2 2.16371 8.55068 3.97256
2 8.33358 11.61 9.83712
2 12.5324 11.4264 0.602089
2 2.13086 12.1219 6.86389
2 12.3389 2.56995 13.3854
2 11.4225 11.8751 6.35356
2 12.5791 0.559151 1.17943
2 0.228633 12.7033 7.90262
2 12.6536 0.485188 11.7738
2 -0.0430467 -0.143921 5.17975
2 11.0894 2.63909 1.77288
2 11.4177 1.08154 8.08201
2 1.29641 10.91 1.5571
2 2.30517 0.582967 9.08188
2 1.39436 2.87432 1.54044
2 1.72236 11.2387 9.24514
2 12.029 11.6259 3.07233
2 11.034 12.4373 9.67134
2 0.701504 10.6737 11.6205
2 1.92816 0.731976 3.83894
2 11.8031 2.21591 10.3893
2 9.86856 11.1436 4.51791
2 10.8945 11.6753 11.6308
2 11.1573 0.890143 3.75699
2 1.01718 1.54003 10.6694
2 2.55982 11.0029 4.27429
1 11.0257 7.9154 7.94474
1 4.76686 10.9858 1.65412
1 0.637095 4.314 8.38003
1 8.39037 0.934737 1.21453
1 1.05761 7.4782 8.72227
1 8.01316 10.6528 0.803888
1 9.98293 4.52519 7.55623
1 4.93228 1.26467 1.41997
1 1.34363 4.67936 5.05023
1 8.28193 1.63372 11.5398
1 11.2614 7.78162 4.95243
1 4.37188 11.1547 11.9947
1 10.9816 4.77981 4.341
1 4.97422 1.46889 11.9141
1 1.76871 7.65285 5.3516
1 7.03245 10.8558 10.1729
1 9.52913 9.81749 3.54299
1 1.36808 9.68905 10.5342
1 2.36784 2.44545 2.96612
1 10.5541 2.91102 9.87651
1 2.25788 9.79435 2.89838
1 9.68694 12.1997 10.6108
1 10.277 2.05587 3.27079
1 2.38959 1.86785 9.95344
1 12.699 2.14414 1.39225
1 11.663 12.3732 8.07952
1 0.0338306 12.1114 1.79332
1 3.00562 12.1474 8.64321
1 12.4555 11.8035 12.5773
1 1.48174 12.376 4.98174
1 0.0505283 2.19022 11.91
1 11.2787 12.4175 4.57577
96
 Atoms. Timestep: 6000
2 0.0854483 7.77861 5.54951
2 4.67493 0.886952 12.537
2 12.6923 4.19497 5.03216
2 7.38559 9.58322 12.7775
2 12.0986 3.98415 9.3388
2 9.25076 -0.0945412 0.535675
2 8.66228 8.70448 8.15851
2 5.13135 0.1958 3.08976
2 10.7197 7.13929 6.32511
2 5.74883 11.3432 0.755745
2 0.499286 3.92479 6.81596
2 7.77923 1.51328 12.8755
2 2.45148 8.01281 6.31879
2 8.62461 9.99461 13.1968
2 10.0695 4.7783 6.00429
2 3.97777 3.42101 12.5086
2 10.9104 6.08191 4.14308
2 4.87884 10.2701 12.0261
2 1.69105 5.97872 4.89522
2 6.42326 1.89712 11.1961
2 1.3863 5.81863 7.72518
2 6.82664 1.05254 1.87664
2 9.33205 5.69334 7.77562
2 6.85978 10.6456 3.08583
2 7.9215 0.253001 10.1649
2 4.68367 10.6294 3.28205
2 3.86921 1.34654 8.07327
2 9.45837 2.06612 1.67699
2 2.12533 8.63625 9.41442
2 8.27339 11.0216 3.87205
2 9.52162 3.78452 8.74773
2 4.37993 2.66884 2.5869
2 2.24715 3.79888 4.24547
2 9.08856 2.68646 10.5487
2 11.0624 8.8138 4.05223
2 10.6701 10.4196 1.968
2 10.6241 3.65828 3.49766
2 4.01405 2.61006 9.98343
2 2.68489 8.60293 3.90797
2 7.15255 10.6597 10.3956
2 10.8747 11.3216 12.5003
2 2.04629 12.6371 6.939
2 0.302529 1.21258 13.2487
2 12.081 0.310084 6.39773
2 0.764031 12.8159 2.02546
2 12.5401 0.264328 8.7417
2 11.6993 12.3645 10.8841
2 0.447252 0.465676 4.83382
2 11.6727 1.7222 1.58876
2 11.1007 2.05316 8.66945
2 1.73273 10.6507 2.52333
2 2.5293 1.07142 10.152
2 1.71496 1.89461 1.97346
2 1.29786 11.0323 9.30737
2 11.9102 11.8401 3.14281
2 9.63114 12.4502 8.32345
2 12.8595 9.62024 10.493
2 2.63185 1.30622 4.37825
2 11.9317 2.73506 11.0184
2 10.5422 11.1968 4.80924
2 9.95895 10.425 10.3762
2 11.0038 0.822365 3.65859
2 1.45205 3.31348 9.08601
2 2.62098 11.2659 5.38664
1 9.35875 7.29242 7.34019
1 5.79044 11.5463 2.46936
1 0.582482 4.27596 8.36648
1 7.97388 1.13854 0.898265
1 2.34979 7.64377 8.00873
1 9.72775 11.1805 0.509609
1 8.99613 4.1456 7.03101
1 6.00795 2.11424 3.00213
1 1.42496 4.47748 5.43355
1 8.18201 1.42944 11.2472
1 11.4892 7.46895 4.9288
1 4.74129 12.0566 12.5998
1 11.0979 4.48494 4.75615
1 4.4349 1.80895 11.2966
1 1.51182 7.76575 5.06189
1 6.19935 9.54565 11.4621
1 9.9305 10.1343 3.75527
1 1.52904 9.83707 10.2785
1 2.76829 2.44158 3.0121
1 10.6149 3.23237 9.91655
1 3.13366 10.3171 3.75625
1 8.44941 11.29 9.54429
1 10.5342 2.39382 2.61802
1 2.56295 2.00786 8.8823
1 0.428506 1.45306 1.45921
1 11.2245 0.71034 7.8897
1 0.146731 11.2892 2.26333
1 1.2219 12.3158 8.16116
1 11.4493 10.7621 10.9852
1 2.02926 12.8186 5.24343
1 12.4171 1.06876 11.7219
1 11.5761 12.6471 4.91253
96
 Atoms. Timestep: 8000
2 1.12305 8.29508 5.42587
2 4.38407 12.1808 11.0303
2 0.702289 4.71036 5.78305
2 8.23536 9.72461 10.1169
2 1.19565 1.6762 8.18375
2 8.31643 12.3095 1.90667
2 7.55789 9.15025 7.63174
2 5.63083 11.706 1.14769
2 10.4291 8.88217 5.98815
2 4.03655 10.811 12.5098
2 2.49681 3.8497 7.76396
2 8.34813 2.40709 0.780068
2 1.82927 7.15728 7.64176
2 11.4259 10.5971 12.9504
2 9.88232 5.20641 5.93968
2 5.10551 1.5351 0.378671
2 12.2359 6.67216 4.94036
2 5.33178 10.3221 9.90559
2 3.08066 6.00428 6.11753
2 6.85274 1.9743 11.2714
2 1.57365 4.7009 9.44872
2 6.71438 1.34674 2.89193
2 8.2167 6.88751 7.10949
2 6.81726 9.99505 0.986717
2 8.83916 2.06917 9.86696
2 3.70751 9.46853 2.054
2 2.09553 2.65426 10.2026
2 9.37938 2.94643 2.64676
2 0.880466 7.73481 9.99383
2 8.415 8.71233 4.82478
2 9.1082 4.70614 8.73641
2 4.57596 1.89745 3.53862
2 3.54483 3.36082 5.6401
2 9.39239 3.83084 11.4519
2 11.1415 8.75889 3.46155
2 9.06161 9.77026 2.10149
2 11.0554 4.54448 3.62096
2 4.10482 2.37907 11.0601
2 2.95249 8.1782 4.08163
2 7.15204 11.7217 9.15704
2 8.87213 10.6292 11.9497
2 1.9241 11.5596 6.69613
2 1.66842 1.64558 12.5975
2 10.6595 1.35563 5.69113
2 2.02311 10.0919 11.7025
2 11.9749 0.242134 7.3194
2 11.5328 0.667674 11.46
2 0.419942 12.1424 4.96268
2 12.1987 2.43262 1.65517
2 10.7773 2.75308 8.5005
2 0.956897 9.6316 2.2015
2 1.0364 0.710098 10.0262
2 2.05711 2.07961 2.95736
2 0.981335 10.7255 9.2884
2 1.03436 11.893 1.69324
2 9.49318 0.64684 8.10876
2 11.6749 10.1216 11.0078
2 3.06725 0.860889 4.95886
2 11.3986 2.88056 10.8629
2 10.0652 11.2933 4.51733
2 9.7742 11.7655 10.2959
2 11.5835 1.67849 3.44331
2 2.74815 4.10676 0.616965
2 1.91169 10.2574 4.52355
1 8.52658 8.42118 6.32292
1 5.10605 10.198 0.821115
1 1.69796 3.12371 8.82577
1 8.29604 1.98226 2.31241
1 1.38323 6.49789 9.04729
1 8.36451 10.8862 0.784294
1 8.64715 5.21869 7.13788
1 5.17408 0.919484 2.13538
1 2.48435 4.68837 6.26292
1 8.0235 2.91629 12.1193
1 11.7552 8.33686 5.02793
1 3.99191 10.4702 10.9455
1 11.2343 5.28094 4.95484
1 5.3119 1.42803 11.4382
1 2.61396 7.75239 5.91593
1 6.97539 10.174 9.13926
1 9.66479 9.81737 3.57915
1 12.0564 9.237 9.88162
1 3.28494 2.33059 4.334
1 10.0903 3.38806 9.97276
1 2.44843 9.59097 3.18345
1 8.42354 0.29893 9.61211
1 10.9459 3.0368 3.00754
1 2.80479 2.80731 12.1182
1 1.43799 1.36023 1.47944
1 10.7464 1.60779 7.40037
1 1.14686 10.3789 0.667628
1 1.33403 12.0844 8.2396
1 10.5567 10.9316 11.611
1 2.01199 11.9551 5.11231
1 0.385047 1.6001 11.1618
1 11.046 0.454066 4.59838
96
 Atoms. Timestep: 10000
2 0.367 7.22981 5.64951
2 6.75278 12.1587 12.277
2 0.22143 4.26069 5.13845
2 5.11452 9.40469 7.93423
2 2.30876 1.50588 8.88904
2 8.61878 11.9303 1.67593
2 7.16656 9.28048 6.86077
2 5.19078 12.0293 3.30351
2 9.57712 8.43199 6.29652
2 3.97908 10.9176 1.07872
2 2.35135 3.29197 7.6669
2 7.3647 1.66676 0.655029
2 2.36923 7.37324 7.38592
2 9.8186 0.667331 11.6358
2 9.51813 4.89617 4.88219
2 5.58658 0.932965 1.45421
2 10.9323 6.61809 4.99731
2 6.69102 10.4155 9.70048
2 1.61418 5.47887 6.31504
2 7.51899 1.91472 11.7195
2 2.16015 5.15094 9.33669
2 6.8326 1.6037 3.26295
2 7.49791 6.44282 5.9819
2 6.77993 10.189 1.51135
2 7.83271 1.86383 7.91323
2 4.76927 9.26476 3.30954
2 2.25634 3.17717 11.2395
2 9.39448 2.1453 2.20584
2 1.77432 8.2529 10.4856
2 8.50443 8.39544 4.59003
2 8.0471 3.92333 7.02946
2 4.03719 1.82002 4.01004
2 2.01993 3.29177 5.20093
2 9.14308 2.57959 9.91645
2 10.9606 9.54963 5.15003
2 9.18819 9.86587 2.11156
2 10.9554 4.09928 3.38059
2 4.73865 2.22456 12.6709
2 2.33562 7.72705 4.47546
2 7.4766 11.4575 7.77677
2 7.74928 10.3619 12.3664
2 2.46011 11.9667 7.09575
2 0.184879 3.53872 9.32655
2 11.1523 0.465593 6.21699
2 1.99924 10.8437 11.9442
2 0.248924 2.60769 7.40874
2 11.4945 1.73673 10.5173
2 0.24123 12.0247 5.20803
2 12.2945 2.08222 1.53157
2 10.3743 3.03278 8.23504
2 2.23295 9.46065 2.08498
2 0.303408 1.07569 9.07583
2 1.48729 1.88867 3.07418
2 1.83726 10.9322 9.42426
2 1.23438 12.1765 1.08743
2 9.79444 0.826873 7.739
2 12.0393 10.8342 10.709
2 2.49828 0.422324 5.02953
2 11.3771 3.37355 12.7511
2 10.1045 11.0361 3.99776
2 9.59569 12.3392 9.7232
2 11.3391 1.78006 4.00902
2 1.84314 2.59453 0.221882
2 2.13692 9.91368 4.67551
1 8.07828 8.16379 6.18338
1 5.38948 10.5972 2.21756
1 1.73667 3.14991 9.4819
1 8.12833 1.11127 2.27385
1 2.09408 6.87425 9.29661
1 8.28136 10.6357 0.917278
1 8.13838 4.83474 5.55252
1 5.32176 1.23343 3.30979
1 1.25494 3.67499 6.44811
1 8.98927 1.86901 11.336
1 11.1565 8.07993 5.92498
1 7.4594 11.2233 11.1327
1 11.2641 5.01091 4.92332
1 6.1236 1.22752 12.8664
1 1.8998 6.89915 5.97372
1 6.6324 9.94229 8.01865
1 9.75792 9.52553 3.81645
1 1.03682 10.0639 10.5356
1 2.4299 1.96362 4.30345
1 8.52037 3.20116 8.42712
1 2.91901 9.08183 3.48616
1 8.24922 0.262452 8.63053
1 11.0831 2.6622 2.66452
1 3.59067 3.38622 12.5874
1 1.36891 1.50736 1.24353
1 11.4041 1.55799 7.77795
1 2.37987 11.0201 0.939285
1 1.93163 12.3703 8.67601
1 11.2301 0.0922329 10.9724
1 1.83894 11.6063 5.65118
1 11.7905 3.28101 11.0014
1 11.1831 0.217055 4.69724
96
 Atoms. Timestep: 12000
2 9.99098 6.41463 6.06409
2 6.98904 0.146808 11.9446
2 5.49694 7.36599 8.18988
2 6.98942 6.44275 10.0466
2 1.2571 2.46917 7.69383
2 7.15012 11.8857 1.44082
2 8.05179 8.69048 8.00368
2 3.423 0.387407 1.85856
2 12.147 7.64179 6.15367
2 3.9571 10.8028 1.00485
2 3.86505 6.14857 9.76698
2 7.48311 1.85899 1.1425
2 1.43078 7.75811 8.33448
2 10.9357 1.85988 12.2326
2 8.78932 4.12157 5.30042
2 4.82618 2.01709 0.947045
2 11.0406 4.74542 5.13124
2 7.25196 10.1731 10.0393
2 3.09699 6.76314 7.41228
2 7.62685 2.01323 12.1798
2 1.96097 6.64193 10.7101
2 6.07561 1.32982 3.31439
2 7.70837 6.83014 6.57672
2 5.80596 9.19007 1.58133
2 8.72707 1.78554 9.81602
2 3.50903 8.29024 2.33302
2 3.15131 3.89781 11.3512
2 8.89609 0.0820171 3.21046
2 2.24852 9.78525 10.5078
2 7.93708 8.33298 4.87007
2 8.17948 4.89477 8.10209
2 3.56128 1.43929 3.76372
2 0.965654 2.22495 5.35278
2 9.11066 3.74645 11.2598
2 10.679 7.69783 3.84004
2 7.85834 9.60633 2.65877
2 10.4113 3.42933 2.92712
2 4.86663 1.90518 11.8065
2 2.09181 7.94259 5.27307
2 8.79798 11.9633 10.5372
2 8.15086 10.2496 12.9606
2 3.088 0.527057 7.32977
2 2.0253 4.2342 9.53346
2 11.08 11.9114 5.2081
2 2.34922 11.2965 12.2768
2 10.1436 1.36319 5.28563
2 0.202969 1.48672 9.41118
2 12.0272 11.3716 2.78087
2 12.0211 2.53465 0.81595
2 10.3441 3.0132 8.7588
2 1.14575 6.48142 3.1052
2 12.0316 0.9728 7.31842
2 1.34394 2.24494 2.83358
2 1.65478 11.7668 8.82419
2 1.34299 0.603286 1.71908
2 9.52544 12.4704 7.3149
2 0.563276 12.4703 11.2836
2 1.85464 12.2185 3.92961
2 11.5175 3.16809 9.40545
2 9.70462 10.2555 2.90431
2 10.7559 0.957758 9.49604
2 10.6479 1.01406 2.40633
2 2.42996 2.61628 0.407225
2 1.60022 9.30065 3.0154
1 7.91141 8.56933 6.40484
1 4.42639 9.40863 2.12815
1 2.81611 5.36705 10.5342
1 7.48587 0.849588 2.5415
1 2.26521 8.27685 10.1847
1 7.16889 10.1205 1.19025
1 8.60592 5.33202 6.68606
1 4.76232 1.78838 2.59429
1 4.41034 6.51398 8.4546
1 9.26256 2.53282 12.5641
1 11.3411 6.30637 4.96125
1 7.67488 11.2739 11.4245
1 10.0467 3.05626 4.81425
1 6.32943 1.59845 12.8446
1 1.60185 7.33474 6.70052
1 6.87707 8.36025 9.29895
1 8.9184 8.66358 3.5784
1 1.80714 11.4624 10.7728
1 1.90351 1.32031 4.28205
1 8.73105 3.3131 9.27733
1 1.96765 7.66695 3.51462
1 9.35184 0.208689 9.19047
1 10.5329 2.51571 1.59992
1 3.12901 2.48878 12.0011
1 1.17785 1.98154 1.27093
1 10.7479 0.359469 6.57842
1 2.5816 11.8664 0.834472
1 1.47849 0.565943 7.38755
1 11.786 0.867439 10.6962
1 1.02817 11.1109 3.06987
1 0.697203 3.39983 9.18967
1 10.6782 12.084 3.27072
96
 Atoms. Timestep: 14000
2 9.31327 6.53197 5.2633
2 6.88889 0.184752 12.4191
2 5.3647 8.72637 8.82648
2 2.80199 8.59504 9.97918
2 4.11607 2.86725 9.17506
2 5.74719 9.74539 2.59858
2 6.15873 10.6985 7.39346
2 3.9524 11.1067 2.4978
2 3.89715 5.26844 5.77677
2 3.08877 8.47197 0.884021
2 4.21161 7.00913 10.5043
2 8.59879 0.519007 1.38436
2 11.7727 7.45797 9.80899
2 10.8735 1.61543 11.7821
2 7.91552 1.8122 2.88767
2 5.97983 12.3365 2.52378
2 9.54736 4.38613 3.53493
2 6.20361 11.1941 10.2666
2 3.40921 7.16357 8.02785
2 7.8077 2.40952 12.4865
2 2.12592 7.06615 11.4775
2 6.55299 10.7402 4.4889
2 8.20322 9.19505 6.8005
2 4.92157 7.68655 0.952791
2 8.91372 3.56152 8.09843
2 2.26051 7.5024 3.091
2 4.22264 5.56314 0.711015
2 9.75729 10.4528 2.81528
2 1.29293 10.4788 9.18156
2 7.93248 9.13945 4.72608
2 9.04283 5.85825 7.13909
2 4.4594 11.532 4.7957
2 1.81866 1.60645 5.18967
2 8.27902 4.86015 10.0079
2 9.3407 7.54978 2.90586
2 4.71686 10.4004 0.541508
2 10.1302 2.76602 2.22993
2 6.10844 3.2453 1.51713
2 1.33217 5.93371 5.33362
2 6.25235 1.54545 8.24045
2 7.76518 9.04768 0.468159
2 3.97878 1.8086 6.83121
2 2.67363 4.74596 10.4635
2 8.61711 11.4218 5.3786
2 2.15257 11.1933 11.5903
2 9.55291 1.59738 5.04667
2 10.0352 0.830743 9.34003
2 2.30604 9.97076 2.8494
2 1.21639 2.27409 1.34756
2 10.4515 6.65827 8.90399
2 11.076 6.23568 3.66844
2 0.634682 11.0257 4.0627
2 3.39692 1.75125 3.58532
2 3.37513 0.907379 9.2953
2 3.26183 12.2077 0.858357
2 8.49477 1.176 7.59429
2 0.926961 1.34716 9.83105
2 2.53218 11.2521 5.21466
2 3.02728 4.93328 7.77575
2 10.6678 8.89201 4.28328
2 7.36926 2.73194 10.0647
2 11.1726 0.60634 1.85519
2 3.34167 3.44655 1.75131
2 1.19517 8.39697 4.84686
1 7.28753 10.3268 6.00351
1 3.60636 7.2187 1.77698
1 3.27256 5.89148 11.4484
1 8.87392 10.53 1.37237
1 1.32104 8.22453 10.7884
1 5.95968 8.79842 1.01388
1 8.927 7.32805 6.5391
1 5.24515 11.1887 3.42629
1 4.2633 7.78146 9.13289
1 8.09127 3.72748 11.2773
1 9.49213 5.98246 3.74814
1 5.53353 11.6146 11.6792
1 9.23217 2.73093 3.56539
1 7.16277 1.57662 1.47267
1 2.7042 6.0317 6.6617
1 5.93466 10.2107 9.01674
1 9.19366 8.94857 3.59475
1 2.12359 11.85 10.0596
1 3.38709 1.15112 5.28228
1 9.53963 5.24142 8.68643
1 0.931531 7.03514 4.21076
1 7.72568 2.40696 8.44929
1 11.121 2.02934 1.03981
1 4.54755 4.25088 1.6181
1 2.8591 1.90766 2.13006
1 9.72965 0.547056 6.28124
1 2.90492 10.3413 1.00363
1 4.52235 1.37674 8.27349
1 11.2944 1.79531 10.2366
1 1.75806 9.98912 4.38351
1 3.08555 3.99026 9.05976
1 10.9819 11.4705 3.20821
96
 Atoms. Timestep: 16000
2 8.32594 6.07068 4.34768
2 6.94181 0.51296 1.0908
2 5.18291 9.4964 8.97289
2 2.6376 8.89521 9.5736
2 4.2195 2.77941 9.23335
2 6.15342 9.01757 3.44559
2 7.12358 10.8741 7.72829
2 4.69526 10.2892 2.01757
2 5.90521 7.004 5.88661
2 3.20653 6.18302 0.796506
2 4.16302 7.05221 9.49831
2 6.78827 9.80829 12.3392
2 0.902412 10.4666 10.5237
2 10.7161 3.63988 9.0829
2 8.38625 2.46749 2.84248
2 5.78601 0.898211 3.14499
2 9.83281 4.49111 3.71814
2 6.7738 11.6989 10.4654
2 3.62503 7.93312 7.56485
2 10.5015 4.19201 11.6859
2 2.49807 7.41361 11.2586
2 6.10537 10.7154 5.13131
2 7.5161 8.11141 6.42906
2 5.15703 6.27254 3.48842
2 5.8338 4.39118 8.2462
2 2.43766 6.60071 3.27056
2 4.90679 5.30339 11.9206
2 8.93347 9.08935 2.55962
2 2.95948 9.75771 11.8986
2 8.33406 9.76842 5.23157
2 7.99735 5.07122 7.08836
2 3.653 11.9107 4.30538
2 0.811032 1.09676 3.8835
2 8.08154 4.08292 9.42898
2 9.98105 8.04943 4.28678
2 4.53308 11.7061 12.1015
2 11.4703 3.15064 4.81306
2 6.52072 3.0974 1.27276
2 3.16799 6.64989 5.32683
2 4.79399 12.0396 8.83253
2 7.22572 7.50143 1.84391
2 2.84542 0.387865 6.62439
2 3.48108 4.9483 10.0425
2 8.23667 11.6983 6.35216
2 2.59461 11.8186 11.6708
2 9.00129 1.75238 5.01461
2 10.4526 1.47901 7.3212
2 2.10212 10.7554 1.86901
2 1.34056 2.69153 1.68088
2 8.11304 2.94714 7.06554
2 11.5329 6.11028 3.93154
2 11.7513 10.8438 2.67789
2 2.33852 2.28913 4.25619
2 2.16311 11.2522 9.0573
2 3.62479 1.33596 2.0633
2 8.70307 0.933599 8.48669
2 1.24538 2.03975 9.24784
2 1.84966 10.5485 4.6165
2 3.70396 5.63316 7.62671
2 9.97205 11.2106 3.9556
2 8.91354 2.46696 10.5567
2 10.277 1.51812 1.53323
2 3.44917 4.31959 2.68544
2 1.54141 8.44156 4.34863
1 7.14483 10.0798 6.19528
1 3.49381 5.7877 2.73455
1 3.96743 6.19745 11.0587
1 8.23729 8.54744 0.985716
1 1.66586 9.00033 10.9653
1 6.23318 7.36612 3.05533
1 7.77546 6.25037 6.01077
1 5.11714 10.7453 3.75161
1 4.22054 8.53482 9.10822
1 9.68363 3.81426 10.2857
1 9.81465 6.24065 3.81651
1 6.17351 11.3367 11.8905
1 9.87217 2.87188 3.998
1 6.9008 1.74928 2.24414
1 4.14845 6.77229 6.55336
1 6.05673 11.0436 9.00607
1 9.36488 9.57345 3.99627
1 1.66421 12.1058 10.3849
1 2.40221 0.925634 5.1336
1 7.5185 3.95133 8.07796
1 1.4877 6.82166 4.61049
1 8.12555 1.21559 9.97655
1 11.0714 2.91604 0.657765
1 5.08553 3.77687 0.489753
1 2.67371 2.85258 2.63711
1 8.87056 1.70384 6.81848
1 3.45816 10.9742 1.17925
1 3.18694 11.7909 8.0487
1 11.4878 2.44614 8.16936
1 1.23414 9.68356 3.27234
1 4.16169 4.56194 8.83043
1 10.9244 0.596451 3.21938
96
 Atoms. Timestep: 18000
2 11.1798 6.73991 1.85221
2 8.10372 1.40096 1.79057
2 5.61953 8.10779 8.61061
2 3.84967 8.07649 9.80811
2 4.40199 2.69696 8.22295
2 4.95882 9.80766 4.11006
2 7.00502 10.2813 7.26298
2 4.29202 11.4256 2.67061
2 4.77732 7.76685 5.9838
2 1.54903 6.01736 0.674372
2 4.17106 5.6419 10.2295
2 5.28256 6.17932 0.712609
2 1.95576 10.0654 10.5714
2 11.0597 2.60048 8.61065
2 8.85129 2.68672 3.80162
2 5.74527 1.68046 4.16567
2 10.0651 5.14231 3.76701
2 7.54578 1.84134 11.1904
2 3.73494 6.87862 7.61052
2 10.8777 2.37088 11.41
2 1.80085 8.25409 12.4631
2 6.17241 11.1227 5.37682
2 7.16315 7.92396 5.96825
2 2.27231 7.71065 2.94584
2 7.47826 3.76668 7.97383
2 1.15495 4.80427 3.74744
2 4.18936 4.31355 11.7653
2 6.89602 8.4272 1.66053
2 4.16834 8.65219 12.4142
2 7.64494 9.53489 4.14715
2 7.61533 6.39165 7.26304
2 3.54325 11.8232 4.92556
2 1.41092 2.4388 6.7232
2 9.73104 4.74904 9.25284
2 8.74798 7.43821 2.73504
2 5.78569 11.737 12.3191
2 11.4131 4.69524 5.92473
2 6.75949 3.62954 1.99923
2 2.2943 6.79569 5.20346
2 5.31631 11.2633 7.73003
2 4.59338 8.09558 2.50539
2 3.00118 1.14649 6.70496
2 5.58493 5.32501 8.77973
2 8.98935 10.7763 5.83522
2 2.93988 0.737487 11.8654
2 9.33608 2.34796 5.67551
2 10.8968 11.8903 7.32764
2 2.18641 9.49477 4.13061
2 1.61524 2.5803 1.92698
2 9.34515 4.59655 6.43459
2 11.097 6.8975 4.3734
2 11.8679 10.3953 3.34491
2 2.82791 2.69666 3.94409
2 3.2618 11.6011 9.39332
2 4.3883 2.27391 1.36849
2 8.57291 1.2042 8.20764
2 0.749557 0.851536 9.62731
2 1.41759 11.908 4.70246
2 6.03643 4.91345 6.41498
2 9.26431 9.52075 1.71996
2 8.96141 2.93658 9.75984
2 10.7752 0.695045 1.11715
2 3.63083 4.46302 2.33534
2 2.00724 9.03834 6.12676
1 7.48017 9.68915 5.78656
1 1.42923 7.22561 1.69035
1 2.81464 5.20658 11.4745
1 5.43606 8.02509 1.23898
1 3.07115 8.74576 11.3002
1 3.59622 9.11227 3.36091
1 6.0394 6.61755 6.03448
1 5.00448 11.5906 4.17057
1 4.6584 6.59919 8.97415
1 10.5303 3.26732 9.80163
1 10.1169 6.65141 2.99107
1 7.28333 0.852823 12.3675
1 9.24592 4.1172 4.81713
1 7.42828 2.18314 3.15581
1 3.34405 7.69296 6.34867
1 5.89839 9.93531 8.48412
1 7.94259 8.85926 2.63665
1 2.06481 11.6334 10.594
1 2.58388 1.83221 5.26505
1 8.81675 5.22922 7.96162
1 0.870955 5.90268 5.08991
1 8.15802 1.58954 9.83688
1 11.8713 1.87769 0.830716
1 4.99954 3.98972 1.36327
1 2.1159 4.01041 2.77402
1 9.3858 0.812506 6.54173
1 4.11109 0.756601 1.14049
1 3.95037 0.978052 7.94334
1 0.676378 1.5024 8.07683
1 1.35135 10.1483 5.12756
1 5.88344 3.9127 7.87384
1 10.7963 10.2921 1.70887
96
 Atoms. Timestep: 20000
2 10.0707 5.80357 1.72942
2 7.11826 2.52713 1.158
2 5.67376 8.77408 8.73017
2 3.91075 8.14904 9.44454
2 5.4271 3.14265 7.9773
2 4.80108 10.2633 3.46284
2 6.30917 10.0598 6.83096
2 4.51088 0.618973 2.23804
2 3.11071 7.41795 4.33825
2 0.794326 6.03118 1.20725
2 1.17062 4.18402 10.9189
2 5.49738 5.93709 0.968021
2 2.46137 9.79764 10.7951
2 11.51 2.54737 9.55881
2 7.82891 3.65087 4.06188
2 6.52367 1.40652 3.44166
2 8.8413 5.61697 4.4276
2 7.72694 0.849246 10.5075
2 3.77448 7.30557 6.8468
2 10.8965 3.53288 11.9569
2 2.66784 6.74635 10.6734
2 6.47269 10.8489 4.4944
2 7.67621 8.40498 5.87909
2 2.3456 7.81185 2.5002
2 8.16977 4.35431 8.41714
2 0.626542 4.53473 2.44252
2 3.43026 5.18064 12.4967
2 6.37461 8.78308 1.72912
2 4.52518 8.17651 12.105
2 8.1377 9.68134 3.91328
2 8.85987 7.02173 8.21084
2 4.52079 0.92495 4.91012
2 1.7096 1.81466 6.68505
2 9.95783 4.79978 9.65604
2 8.86791 7.54013 2.47997
2 5.77646 1.03836 11.9997
2 0.995291 3.61523 4.64222
2 5.80304 3.90383 2.66654
2 1.24723 5.78875 6.11347
2 5.63596 11.7046 8.59762
2 4.89149 7.70616 3.03894
2 3.91552 1.31437 6.97073
2 6.10926 5.82675 8.61402
2 8.72716 11.5078 5.19757
2 3.14224 0.560324 12.0333
2 8.49488 2.58293 5.74802
2 10.9955 1.25421 7.06455
2 2.26913 9.74758 3.83495
2 0.946798 2.44985 2.15008
2 9.99006 4.55839 6.56067
2 10.8369 5.8742 4.51217
2 11.1417 10.4506 3.61013
2 2.90537 2.37704 4.48948
2 3.35674 1.42973 9.42316
2 4.61837 2.6962 0.687084
2 8.42995 0.916007 7.9267
2 1.40052 0.756744 9.53033
2 1.48137 11.383 5.40188
2 7.17753 5.73117 6.90358
2 11.1245 8.86837 1.50817
2 8.30118 10.4991 11.2423
2 10.7404 0.91584 1.44481
2 3.414 3.31184 2.33614
2 1.46632 8.43721 5.21549
1 7.34661 10.0039 5.46902
1 0.873974 7.57639 1.86995
1 1.87401 5.52109 11.7947
1 5.0958 7.43118 1.41564
1 3.31659 8.17539 10.8722
1 3.696 8.82679 3.51476
1 7.71062 7.2473 6.90045
1 5.15745 11.8943 3.5574
1 4.83817 7.21251 8.2523
1 11.1781 3.8285 10.156
1 9.90757 6.40593 3.23534
1 7.5919 1.56373 12.0724
1 8.79681 4.09271 5.37482
1 6.94566 2.81283 2.90914
1 2.26157 7.03316 5.90477
1 6.06079 10.2232 8.58021
1 7.819 8.89226 2.64776
1 2.7061 11.4448 10.4144
1 2.9997 0.950851 5.45009
1 9.70509 5.27526 8.27891
1 11.5411 5.11335 5.51123
1 8.13485 11.0849 9.65899
1 11.2305 2.28301 0.974146
1 4.71004 4.2085 1.29518
1 1.64021 3.38985 3.17583
1 9.10762 1.15209 6.55425
1 4.36104 1.14495 0.835844
1 4.69962 1.75911 8.2536
1 0.854785 1.60841 7.95583
1 0.814844 9.9239 4.85268
1 6.48814 4.37157 8.11753
1 11.0518 10.7714 1.91042
96
 Atoms. Timestep: 22000
2 9.62539 1.48703 2.59656
2 7.44189 1.59566 1.68447
2 5.98842 7.88312 7.54844
2 4.18335 7.37638 9.43352
2 6.39244 3.75579 5.78449
2 5.09261 10.3922 3.87228
2 8.02289 10.0262 6.34321
2 4.46544 12.038 2.8873
2 3.27102 8.44712 4.81261
2 1.07402 7.9284 12.6705
2 1.21688 5.73879 10.7701
2 4.69952 5.51501 0.995881
2 3.17715 9.81576 11.4893
2 0.594362 3.23772 9.42453
2 8.06775 3.37516 3.63411
2 5.21828 2.07146 4.15955
2 9.50789 4.1536 2.12732
2 7.33991 12.388 10.865
2 2.92836 8.08535 7.19979
2 0.615314 3.44113 12.0011
2 3.27853 7.43866 11.9953
2 6.86144 10.7397 4.7164
2 9.1796 8.54214 5.31499
2 2.62514 9.06785 2.2056
2 7.94122 4.38953 7.90191
2 11.8283 4.68435 3.03231
2 2.43992 5.28983 1.55959
2 7.18708 7.40415 1.57318
2 5.43081 8.05539 11.8586
2 8.42714 9.74397 3.35616
2 8.99398 6.34529 7.57322
2 4.07504 0.362713 5.46204
2 1.87283 1.68656 7.42432
2 10.4513 4.39156 9.50447
2 9.49996 7.05057 2.98762
2 5.56034 1.3422 1.02409
2 0.736116 4.40354 5.01186
2 4.96551 4.10636 3.1689
2 0.880389 7.18947 6.2791
2 5.00681 9.91304 7.51695
2 5.05411 7.9215 2.76885
2 1.9084 11.0909 7.34948
2 5.00246 5.74434 7.404
2 9.39087 11.6166 5.88587
2 2.30461 0.686016 12.1787
2 9.81982 2.86281 7.58922
2 11.4624 1.24914 8.60548
2 1.36046 10.1488 3.42784
2 1.2019 2.45894 2.03954
2 10.7553 5.4272 7.35866
2 10.4878 5.73643 4.96503
2 10.2915 10.6957 3.73457
2 2.07154 2.33826 5.16928
2 2.39238 10.2816 9.53303
2 3.1274 2.74843 1.39585
2 8.98902 11.4945 8.18463
2 1.9102 1.11347 10.2185
2 0.963471 0.447164 5.28361
2 7.47767 6.07363 6.08199
2 11.0622 10.1888 1.4193
2 6.89701 10.6714 7.85841
2 11.335 0.881612 0.614907
2 3.0309 3.6734 3.25624
2 0.944146 9.7589 5.3895
1 8.79947 10.4419 4.81244
1 0.947357 9.47737 1.80164
1 1.97622 6.37143 12.2739
1 5.5888 7.01807 1.49244
1 4.18024 8.4926 10.8368
1 3.97428 8.9616 3.48502
1 8.51629 7.33684 6.35348
1 5.35398 12.0958 4.23021
1 4.35657 7.24553 7.75614
1 0.0650836 4.47589 10.7168
1 10.2306 5.38002 3.28907
1 6.80051 0.76305 12.5135
1 8.64033 2.56963 2.20064
1 6.10107 3.5832 4.2032
1 1.83482 8.38088 5.87115
1 6.59179 9.33083 6.87764
1 8.55255 8.35949 2.36715
1 2.16765 11.0926 10.897
1 2.18321 0.876648 6.08726
1 9.4882 4.61371 8.29075
1 11.7931 5.79183 5.81582
1 7.68504 11.2401 9.32597
1 1.1449 2.01118 0.475656
1 3.9251 4.37778 1.72421
1 1.42656 3.4782 3.63726
1 10.0855 1.02222 7.17745
1 3.81364 1.15787 1.12047
1 2.98045 9.96772 7.94195
1 1.43684 1.92139 9.13656
1 11.8573 10.7818 4.31907
1 6.42552 4.99813 6.98486
1 10.3728 11.6068 1.88901
96
 Atoms. Timestep: 24000
2 9.91781 0.673939 1.98914