96
 Atoms. Timestep: 0
2 0 7.95642 4.74695
2 4.63304 0 11.358
2 0 4.63304 4.74695
2 7.95642 0 11.358
2 0 4.63304 8.47514
2 7.95642 0 1.8641
2 0 7.95642 8.47514
2 4.63304 0 1.8641
2 10.7421 8.43088 6.61105
2 4.15858 10.7421 0
2 1.84736 4.15858 6.61105
2 8.43088 1.84736 0
2 1.84736 8.43088 6.61105
2 8.43088 10.7421 0
2 10.7421 4.15858 6.61105
2 4.15858 1.84736 0
2 10.5201 6.29473 5.04003
2 6.29473 10.5201 11.6511
2 2.06934 6.29473 5.04003
2 6.29473 2.06934 11.6511
2 2.06934 6.29473 8.18207
2 6.29473 2.06934 1.57102
2 10.5201 6.29473 8.18207
2 6.29473 10.5201 1.57102
2 10.1594 8.65935 9.20274
2 3.93011 10.1594 2.59169
2 2.43004 3.93011 9.20274
2 8.65935 2.43004 2.59169
2 2.43004 8.65935 9.20274
2 8.65935 10.1594 2.59169
2 10.1594 3.93011 9.20274
2 3.93011 2.43004 2.59169
2 2.43004 3.93011 4.01936
2 8.65935 2.43004 10.6304
2 10.1594 8.65935 4.01936
2 3.93011 10.1594 10.6304
2 10.1594 3.93011 4.01936
2 3.93011 2.43004 10.6304
2 2.43004 8.65935 4.01936
2 8.65935 10.1594 10.6304
2 0 10.703 0
2 1.88643 0 6.61105
2 0 1.88643 0
2 10.703 0 6.61105
2 0 0 1.872
2 0 0 8.48305
2 0 0 11.3501
2 0 0 4.73905
2 11.2706 2.31295 2.18973
2 10.2765 11.2706 8.80078
2 1.31887 10.2765 2.18973
2 2.31295 1.31887 8.80078
2 1.31887 2.31295 2.18973
2 2.31295 11.2706 8.80078
2 11.2706 10.2765 2.18973
2 10.2765 1.31887 8.80078
2 1.31887 10.2765 11.0324
2 2.31295 1.31887 4.42131
2 11.2706 2.31295 11.0324
2 10.2765 11.2706 4.42131
2 11.2706 10.2765 11.0324
2 10.2765 1.31887 4.42131
2 1.31887 2.31295 11.0324
2 2.31295 11.2706 4.42131
1 11.0086 7.83654 8.10972
1 4.75292 11.0086 1.49867
1 1.5809 4.75292 8.10972
1 7.83654 1.5809 1.49867
1 1.5809 7.83654 8.10972
1 7.83654 11.0086 1.49867
1 11.0086 4.75292 8.10972
1 4.75292 1.5809 1.49867
1 1.5809 4.75292 5.11238
1 7.83654 1.5809 11.7234
1 11.0086 7.83654 5.11238
1 4.75292 11.0086 11.7234
1 11.0086 4.75292 5.11238
1 4.75292 1.5809 11.7234
1 1.5809 7.83654 5.11238
1 7.83654 11.0086 11.7234
1 10.1088 10.1088 3.30552
1 2.48067 10.1088 9.91657
1 2.48067 2.48067 3.30552
1 10.1088 2.48067 9.91657
1 2.48067 10.1088 3.30552
1 10.1088 10.1088 9.91657
1 10.1088 2.48067 3.30552
1 2.48067 2.48067 9.91657
1 0 1.60471 1.57853
1 10.9848 0 8.18958
1 0 10.9848 1.57853
1 1.60471 0 8.18958
1 0 10.9848 11.6436
1 1.60471 0 5.03252
1 0 1.60471 11.6436
1 10.9848 0 5.03252
96
 Atoms. Timestep: 2000
2 0.234598 8.79771 4.98179
2 4.06118 12.6348 11.5815
2 12.5395 5.03394 4.96389
2 7.59638 11.8724 11.3754
2 12.5968 4.90284 7.72085
2 7.99458 12.0788 1.37426
2 0.0395855 8.55921 8.35374
2 5.4809 0.0725435 1.98236
2 11.3315 7.97103 6.75026
2 4.06101 10.4447 0.292439
2 1.99397 5.26675 6.3124
2 8.09787 0.850358 13.1241
2 2.27204 8.06896 6.67337
2 8.13494 10.0965 13.3146
2 10.6071 4.95831 6.87876
2 4.6257 2.35557 13.3322
2 10.5352 6.68105 5.03017
2 5.85263 11.0574 11.9804
2 1.20868 7.11926 4.2956
2 6.27036 1.00737 11.663
2 1.44095 6.9327 8.28928
2 6.53763 1.6829 1.36121
2 10.9389 6.46185 9.11203
2 6.43739 10.2161 1.45884
2 10.1135 8.65628 8.64945
2 3.68839 11.3342 2.4226
2 2.05171 4.2136 9.27134
2 9.2859 1.92785 1.80608
2 1.88471 9.14893 9.64401
2 9.99059 9.61176 2.05959
2 10.532 3.49473 9.32001
2 3.82873 2.42336 2.63423
2 2.70275 3.81134 4.5719
2 9.14271 1.73074 11.4399
2 11.2218 9.06797 4.40363
2 2.61806 11.0807 11.5482
2 10.4203 4.00344 4.01959
2 3.79264 2.37256 10.6469
2 2.50499 9.65685 3.84925
2 8.29205 10.1424 10.4194
2 -0.117909 10.2931 13.3537
2 1.68355 -0.0501387 6.94026
2 0.27406 0.664791 0.16219
2 9.65774 12.9175 6.17462
2 0.739043 12.0909 2.37517
2 12.4422 0.656474 7.6933
2 12.2515 -0.227725 11.5988
2 12.5986 0.371696 5.05066
2 11.9225 1.54499 2.6894
2 9.57322 11.4952 8.66799
2 1.97818 9.99094 1.5562
2 1.93902 1.70514 8.83442
2 1.46011 1.56015 2.64162
2 1.32201 11.7147 9.04248
2 12.853 9.66243 2.48976
2 10.03 0.946757 8.9791
2 12.7019 10.6306 10.9213
2 1.81497 1.4238 4.87736
2 11.5277 2.08166 11.0873
2 11.104 11.15 4.26905
2 10.6098 10.2336 10.998
2 10.2417 0.543558 3.53647
2 1.51535 2.23176 11.115
2 1.93585 11.5647 4.27341
1 11.6262 7.73301 8.33652
1 5.16968 11.2823 1.80005
1 1.48958 5.04144 7.81044
1 8.07157 1.11705 1.14696
1 1.6477 8.43728 8.04358
1 8.93229 10.6346 1.10108
1 10.754 5.01077 8.54761
1 4.67677 1.74303 1.29537
1 1.29559 5.40974 4.64688
1 7.87271 0.733699 11.421
1 11.8562 7.92436 5.12764
1 4.17068 10.8512 12.1726
1 10.9897 4.92478 5.37273
1 4.47821 1.61377 11.922
1 1.92956 8.49922 4.73069
1 7.4846 10.3937 11.8719
1 11.1359 10.019 3.14269
1 1.43478 10.7951 10.4287
1 2.42656 2.33942 3.56208
1 10.2642 2.14003 10.0893
1 2.2641 10.8534 2.88447
1 9.74903 9.95923 9.5117
1 10.4985 2.26352 2.90993
1 2.40561 2.80293 9.95949
1 0.285105 0.821613 1.70121
1 10.7484 0.0568305 7.75874
1 0.728865 9.27126 0.826254
1 1.06116 0.463578 8.31573
1 11.6347 11.2306 12.1886
1 1.10943 -0.149577 5.1909
1 -0.0896842 1.37625 12.0837
1 10.8569 12.8691 4.74838
96
 Atoms. Timestep: 4000
2 12.4648 7.76273 4.62917
2 4.52586 0.021866 10.9986
2 12.4109 4.24758 4.0656
2 7.72238 -0.273906 11.8232
2 -0.198823 4.53846 8.36359
2 8.36268 12.5761 1.80682
2 12.359 7.83358 8.42849
2 5.19274 0.369414 1.56128
2 10.3465 8.18477 5.97174
2 4.17141 12.0211 13.1437
2 1.61554 4.13705 6.18193
2 8.33363 1.95965 13.3625
2 1.21048 8.36983 6.50983
2 7.96038 11.1088 0.477402
2 11.1119 4.53358 6.24284
2 5.19602 2.13391 13.1374
2 10.3003 6.14221 4.60994
2 6.22295 10.9141 12.1564
2 1.43786 6.23817 4.2865
2 6.36996 2.08011 11.4843
2 1.64434 6.37633 8.0833
2 6.66837 1.82289 1.95864
2 10.3063 6.06118 7.9878
2 5.98213 11.1898 1.21988
2 10.2585 9.15776 9.00024
2 4.04721 11.2623 2.88628
2 2.08838 3.54355 9.00804
2 9.8212 1.22805 1.94398
2 1.69074 8.91217 9.19856
2 8.82203 10.0473 2.21201
2 10.413 3.84278 9.25721
2 4.15297 2.71488 2.26721
2 2.07119 3.79069 3.55312
2 9.10129 2.14773 10.9979
2 10.1691 8.76102 3.66788
2 4.04398 10.3491 10.6334
2 10.3566 3.49076 3.53254
2 3.35857 1.94802 11.0373
2 2.12808 9.23109 4.75682
2 8.79956 10.1591 11.1826
2 12.5246 10.465 13.3956
2 1.07692 0.325961 7.16163
2 12.2296 1.6851 0.268365
2 11.4695 12.0359 7.19605
2 0.900432 -0.160102 1.12188
2 0.138426 12.498 9.16579
2 0.649264 12.702 11.6342
2 12.3334 12.3549 5.05941
2 11.8681 1.91749 2.66079
2 10.3418 11.4492 9.8518
2 1.37306 10.2662 2.37711
2 2.22784 1.28536 8.68214
2 1.67666 2.08211 1.80231
2 2.6562 11.8749 9.21062
2 11.7353 11.0536 2.52971
2 10.865 1.18809 9.02647
2 1.20784 10.619 10.5043
2 1.25209 1.01177 3.99072
2 11.5886 2.57927 11.496
2 10.2933 11.1903 4.51335
2 11.7539 10.239 11.1073
2 10.5505 0.879263 4.62876
2 0.539667 1.95597 10.7816
2 2.01174 11.5643 4.72216
1 10.7993 7.93696 7.86867
1 4.65866 11.8683 1.31325
1 1.31783 4.44339 7.74984
1 8.34415 1.37541 1.40825
1 1.03599 8.01709 8.06247
1 7.4028 11.1646 2.06179
1 10.9474 4.46544 7.8421
1 5.34757 1.91464 1.1579
1 1.20039 4.56333 4.71575
1 7.75698 1.49558 11.7568
1 10.9186 7.75794 4.60004
1 4.86094 11.4724 11.6862
1 10.8646 4.6937 4.67489
1 4.89458 1.84348 11.5638
1 1.09342 8.06921 4.88698
1 7.92949 11.0728 12.3593
1 10.4297 10.4194 3.12354
1 2.80235 10.2784 9.34268
1 2.44996 2.26304 3.01768
1 10.5967 2.47104 10.2786
1 2.38579 10.4869 3.55419
1 10.1549 9.84846 10.5379
1 10.4783 1.70638 3.28947
1 1.96497 2.36273 9.91023
1 0.190863 1.17388 1.66202
1 11.1834 12.5301 8.9774
1 0.0621298 11.0745 1.34841
1 1.70893 12.6266 8.41896
1 0.120481 10.8083 11.6886
1 0.807772 12.7071 5.14271
1 12.7098 1.39056 12.1608
1 10.7873 12.3637 5.49681
96
 Atoms. Timestep: 6000
2 12.5933 9.12486 5.11876
2 5.2793 0.0537931 11.168
2 8.91677 4.88224 3.97454
2 8.71006 -0.187432 12.0117
2 -0.270324 4.37091 7.01392
2 7.2032 0.139222 1.29145
2 0.161851 6.74093 8.54915
2 4.58066 0.364846 1.43085
2 11.0751 8.33659 7.04235
2 5.04761 10.9706 13.2394
2 1.81966 4.5247 6.18494
2 8.65534 2.47492 -0.0292861
2 2.28976 7.84682 6.73222
2 8.30989 11.0833 -0.103756
2 10.3227 4.39135 6.39334
2 4.54808 2.43735 12.9531
2 10.4782 6.90508 4.48848
2 6.91065 10.7938 11.8183
2 1.67755 7.29197 4.73134
2 6.79684 1.80446 11.5982
2 1.98623 5.34519 8.24431
2 5.80394 2.80258 1.23634
2 11.3142 6.14867 7.8858
2 5.86919 11.4661 1.84082
2 11.3021 8.25363 9.55363
2 3.28582 11.3066 1.9979
2 1.65298 2.75214 8.60234
2 8.62052 1.70594 2.29372
2 2.51829 8.01739 9.11515
2 8.41803 10.7897 2.88574
2 11.0514 3.27683 8.84801
2 2.9807 2.59862 2.3529
2 1.50252 4.41548 4.04548
2 9.47955 2.1643 10.8216
2 9.98621 9.26937 4.94412
2 4.01782 9.7356 10.6892
2 10.5862 3.48804 4.3301
2 3.93232 2.08134 10.1001
2 2.10892 9.77449 4.74629
2 9.78623 10.4875 11.1279
2 -0.079493 11.377 0.454918
2 2.09937 -0.24868 6.2797
2 0.321375 1.33993 -0.0957945
2 9.88239 -0.154197 7.22075
2 12.2979 12.6673 1.96083
2 1.82171 9.81371 6.90374
2 0.380498 12.4367 12.3731
2 12.2896 0.761395 5.84927
2 11.3682 2.14899 2.25333
2 10.7779 10.8616 8.89866
2 0.672289 10.5598 2.34009
2 2.17302 0.027432 8.45593
2 0.358981 2.68492 2.30405
2 1.73611 10.7046 8.98868
2 10.7339 10.0463 2.31322
2 10.6023 0.480385 9.91537
2 1.84989 10.391 11.867
2 1.78832 1.44365 4.18315
2 12.1462 2.12529 11.1116
2 10.1593 11.8935 3.55513
2 12.2565 10.1412 11.6603
2 10.179 1.25841 4.2267
2 1.60764 1.06294 10.6828
2 0.999669 12.2433 3.88385
1 11.8193 7.65979 8.15028
1 4.61079 11.7472 0.898162
1 1.29162 3.85596 7.3923
1 7.25715 1.85613 0.876663
1 1.95604 6.85472 8.05712
1 7.59694 11.6262 1.57635
1 11.0797 4.36871 7.74696
1 4.17702 2.40982 1.17441
1 1.9741 5.5676 5.08596
1 8.64523 1.60549 12.1002
1 11.1354 8.35325 5.4895
1 5.26968 11.0581 11.7409
1 10.4714 5.17134 4.65358
1 5.00935 1.64687 11.4699
1 1.28009 8.6633 5.34797
1 8.37919 10.9979 11.9318
1 9.77158 10.3899 3.61
1 2.31763 9.74441 10.1902
1 1.66381 2.85316 3.20959
1 10.8734 2.13344 10.1408
1 1.90409 10.7684 3.25588
1 11.2249 9.82957 10.3555
1 10.1445 2.6647 3.26024
1 2.46744 1.45076 9.29219
1 12.7158 1.27169 1.41327
1 10.5993 12.4048 8.83535
1 12.0802 10.9452 2.02037
1 1.76085 11.5839 7.61479
1 0.320968 11.0112 12.618
1 0.989105 0.317298 5.19041
1 0.26715 0.918065 11.8219
1 10.4539 0.0283628 5.37574
96
 Atoms. Timestep: 8000
2 0.194548 8.06907 6.36614
2 4.89775 12.6313 11.256
2 8.09221 5.45834 3.48798
2 7.49941 12.1594 11.7287
2 11.9 3.75811 7.47415
2 8.05481 -0.00717729 1.74694
2 12.0558 7.44418 9.37995
2 5.17975 0.235664 2.18297
2 10.4929 7.54936 6.68698
2 4.82384 11.1592 0.43663
2 0.879518 4.92615 6.49686
2 7.54153 1.8567 12.8187
2 1.86431 7.20204 8.19479
2 9.04323 10.8423 -0.0605528
2 9.44514 4.78429 6.05084
2 4.4745 1.56989 13.2037
2 9.49457 7.04099 4.72884
2 6.67968 10.3131 12.1886
2 1.81233 7.3371 5.29918
2 6.34287 1.90891 10.8624
2 0.802381 5.14553 9.30992
2 6.4482 2.06338 1.40312
2 10.5578 5.62586 8.1168
2 7.32182 10.6117 2.20239
2 9.74393 8.4477 9.17177
2 4.10474 11.1281 2.59626
2 1.91506 2.9642 8.42776
2 8.87572 2.33348 2.60442
2 1.7612 8.03475 10.3025
2 9.63061 10.276 2.41745
2 9.38836 3.12755 8.49046
2 4.16666 2.8368 2.22491
2 1.80838 4.757 3.77696
2 8.66359 1.14995 10.2717
2 11.3643 9.39579 4.73755
2 3.80546 10.4286 11.6066
2 10.2716 4.82548 3.49999
2 3.51137 1.88921 9.75844
2 4.24601 11.767 4.92708
2 9.34227 11.1074 10.6022
2 0.227231 10.6884 0.345522
2 2.15208 12.6172 6.47047
2 12.1987 1.6849 13.2445
2 10.7199 0.596259 5.75171
2 12.0743 0.999131 2.70302
2 1.88327 9.71975 7.86186
2 11.7513 12.5118 11.487
2 0.148047 0.174346 4.72398
2 11.1467 3.16174 1.2684
2 10.9463 10.8124 8.02423
2 2.17204 10.1674 2.70894
2 2.22315 -0.0272214 8.92652
2 1.28681 3.19967 2.37469
2 2.94089 10.7109 9.38498
2 12.0848 9.8286 2.40618
2 10.5373 0.744431 8.75196
2 0.95185 9.8817 11.7047
2 1.91902 2.02298 3.95085
2 11.3221 2.06691 11.0391
2 11.2368 11.7114 3.96427
2 11.7325 10.3184 10.2612
2 10.4626 2.14907 4.08358
2 1.05779 1.05366 10.693
2 2.41476 12.4992 4.22613
1 10.7725 7.10795 8.29055
1 5.58174 11.106 1.92164
1 0.681521 4.18948 8.13622
1 8.17316 1.53449 1.12606
1 0.86311 6.91992 9.84557
1 8.75239 11.0986 1.47227
1 10.3506 4.10882 7.63035
1 4.85721 1.74008 1.35078
1 1.25694 5.67353 5.1399
1 7.67412 1.02971 11.4403
1 11.389 7.88731 5.18092
1 5.23742 11.2195 12.0554
1 9.2822 5.58648 4.5239
1 4.46228 1.49599 11.3556
1 1.62964 8.28994 6.86713
1 8.36171 10.7635 11.7395
1 11.0155 10.3663 3.4935
1 2.54536 9.78983 10.6275
1 2.66768 3.28236 3.26474
1 10.0665 1.99846 9.72251
1 2.98113 11.0731 3.79122
1 10.4535 9.99152 9.39138
1 10.2374 3.55744 2.63867
1 2.13172 1.5855 9.13387
1 12.5809 2.27282 1.37993
1 10.431 12.4942 7.3196
1 0.765483 9.64031 1.63152
1 2.35332 11.3664 7.72482
1 12.1396 11.161 12.1163
1 1.57358 0.794992 5.07636
1 12.5146 1.23342 11.7212
1 11.2182 0.739534 4.31462
96
 Atoms. Timestep: 10000
2 0.273042 8.15812 4.42084
2 4.02183 0.0677212 12.1305
2 9.88262 5.27343 2.66886
2 7.89853 12.0824 11.2062
2 12.5378 3.72474 7.48535
2 8.73049 0.281928 1.68007
2 12.2666 7.01186 8.0541
2 3.94301 0.650534 2.24871
2 11.1388 8.24383 6.31968
2 4.56978 11.5703 -0.0290476
2 2.6626 4.42519 7.27107
2 8.69714 0.953409 12.9571
2 1.87999 7.47102 6.82789
2 7.92645 11.7026 -0.277203
2 10.672 4.83317 5.83408
2 4.62264 2.59314 13.1476
2 10.9105 6.76409 4.61862
2 6.11112 10.8617 12.0906
2 2.8096 5.44403 5.14714
2 6.24145 1.82486 11.6562
2 0.978734 5.60685 8.51072
2 6.90341 2.28323 0.962862
2 9.99781 5.64925 7.80132
2 6.56185 11.423 2.01974
2 10.3937 8.42021 9.21187
2 4.17949 10.7215 2.25951
2 0.923953 3.0273 9.40923
2 9.87192 2.18791 1.8915
2 1.34894 8.5042 9.10654
2 8.85167 10.5468 2.19918
2 10.0031 3.63624 8.76947
2 4.40548 2.88639 2.03907
2 3.37289 3.00052 4.69581
2 8.20203 2.3568 10.7261
2 10.7093 9.15052 3.37839
2 3.43602 10.1258 11.0274
2 11.327 3.93158 3.65747
2 2.94144 2.1696 11.7375
2 2.71588 9.02607 4.73964
2 8.68732 9.78647 10.9162
2 -0.087288 11.429 13.419
2 1.5332 12.1998 5.91591
2 -0.325512 1.67474 0.356479
2 10.5548 -0.0762298 6.99505
2 1.00686 12.7263 2.66702
2 12.0936 12.1452 8.57363
2 12.1714 0.201768 11.9984
2 12.6189 -0.0233672 4.88208
2 12.3479 1.63347 2.96479
2 10.0124 10.6597 8.68886
2 1.44669 10.6296 2.25031
2 3.05874 4.29881 10.7036
2 1.774 2.21015 2.2133
2 1.858 10.887 8.88512
2 11.4419 11.2516 2.10733
2 10.1399 0.695515 9.52388
2 0.289546 10.5814 10.8454
2 2.41747 1.07869 4.30422
2 10.8892 2.054 11.0063
2 10.597 11.7429 4.31829
2 11.1656 10.4723 11.0626
2 10.5061 1.57666 4.51812
2 0.125581 2.8914 11.7956
2 2.53558 11.475 4.21976
1 10.5911 7.5454 7.80797
1 4.7915 12.2497 1.60703
1 1.19788 4.12429 8.05978
1 8.54007 1.63279 0.946849
1 1.17187 7.24116 8.2707
1 8.16097 11.6551 1.48589
1 11.1926 4.56221 7.55143
1 5.4008 2.864 0.860829
1 3.43787 4.11449 5.89623
1 7.83946 0.815507 11.5403
1 11.612 8.17881 4.50751
1 4.63204 11.5021 11.9706
1 10.5536 5.15069 4.23678
1 4.42305 1.42511 11.4911
1 1.87826 7.17763 5.22675
1 7.8792 10.6724 12.038
1 10.1249 10.8219 3.22086
1 1.63817 9.86901 10.1118
1 3.20104 2.29717 3.22045
1 9.66564 2.25185 9.76062
1 3.13822 10.2449 3.33955
1 10.0146 9.79272 10.0812
1 10.8738 2.50095 3.15126
1 1.64734 2.92165 11.0744
1 0.663178 1.13116 1.75059
1 10.1816 12.2741 8.75533
1 12.7602 10.6349 1.32857
1 2.23602 11.3427 7.21559
1 12.0926 11.4746 11.9489
1 1.18728 12.4753 4.2575
1 11.8714 1.66932 12.6167
1 10.9845 0.138615 5.29633
96
 Atoms. Timestep: 12000
2 0.199931 7.28416 4.66977
2 4.37149 0.338973 11.7605
2 8.52527 4.03905 6.07597
2 8.10164 12.3335 11.3059
2 12.7074 4.68987 7.56399
2 7.589 -0.14437 1.04413
2 0.266859 8.14183 8.28638
2 4.32398 0.553959 2.19265
2 11.1846 7.48882 6.37099
2 4.31778 11.8244 0.111158
2 2.78797 3.9479 6.95393
2 8.092 1.93337 12.893
2 1.61317 7.70537 6.41928
2 7.65605 10.8824 13.6439
2 10.2201 5.24455 6.74431
2 4.65531 3.4393 12.6591
2 10.5869 5.85983 4.2093
2 6.10336 10.7638 11.7424
2 2.83599 5.2662 5.35114
2 6.00785 1.7872 10.9847
2 2.02828 6.63261 8.13835
2 4.82654 5.16245 0.733196
2 10.7544 6.40172 8.36374
2 6.20849 11.3269 2.16054
2 10.9577 8.79631 8.74867
2 3.96467 10.1768 2.2028
2 2.02813 4.15981 9.22968
2 9.31298 1.56212 2.38409
2 2.63236 9.13735 8.84308
2 8.83269 10.0327 2.51673
2 10.6156 3.44483 8.89405
2 3.02138 3.06074 1.24352
2 4.15445 3.40787 3.87847
2 8.81658 2.14157 10.6311
2 10.8895 8.53649 4.15926
2 3.22009 10.8043 11.3923
2 9.87526 3.21313 4.4911
2 3.57741 2.58878 10.4427
2 2.79038 8.27109 4.04518
2 9.36295 10.1839 11.3206
2 12.7703 10.9164 0.00699936
2 1.5239 12.9471 6.31022
2 12.4599 1.54287 -0.0878443
2 10.5926 12.2573 6.7568
2 0.677904 0.388415 2.70896
2 12.3549 12.1111 8.51411
2 12.5862 12.5925 11.8443
2 12.4778 -0.0817025 5.02593
2 11.3207 2.41452 2.48927
2 9.92819 10.9921 9.52395
2 1.62413 9.95348 2.12518
2 2.39094 3.97811 12.5267
2 1.11121 2.67325 1.66357
2 1.86698 11.3148 8.75066
2 11.648 10.6528 2.7444
2 10.0543 0.694208 8.80759
2 1.04497 10.2534 10.8656
2 2.02935 1.61709 3.79599
2 11.6742 2.02708 10.8017
2 9.99033 11.2209 4.4942
2 11.4608 9.99324 11.3746
2 10.8811 0.568887 3.83197
2 1.48341 2.05554 11.2298
2 2.09288 11.0514 4.27929
1 11.5852 7.66553 7.96364
1 4.48914 11.5994 1.93588
1 1.60261 4.82966 7.88592
1 8.02656 1.45859 1.25824
1 1.95437 8.1679 7.8998
1 7.56869 11.1463 1.55309
1 11.015 4.85328 8.04546
1 3.67319 4.03554 0.223009
1 4.00688 3.87542 5.59062
1 7.60818 1.15101 11.4418
1 11.482 7.15824 4.73073
1 4.6885 11.5736 11.937
1 9.69013 4.8274 5.16685
1 4.57778 1.94667 11.7625
1 2.16933 6.84046 4.97632
1 7.64504 10.6905 11.7631
1 10.1941 9.99214 3.40446
1 2.51527 10.4038 9.85245
1 2.80031 2.46319 2.7362
1 10.3544 2.24833 9.9169
1 2.74342 9.76408 3.17874
1 10.4892 9.76581 10.1456
1 10.3129 1.96886 3.55278
1 2.18002 3.35551 10.6998
1 -0.275739 1.39305 1.77336
1 10.6501 12.1561 8.34401
1 0.0815506 10.7315 1.65502
1 1.00441 12.0844 7.77336
1 12.8162 10.6045 11.9086
1 1.34966 12.5387 4.37909
1 0.0593642 1.44088 11.7492
1 10.9452 12.2494 5.16589
96
 Atoms. Timestep: 14000
2 12.5935 8.03613 3.92408
2 4.8898 12.1531 11.5483
2 8.62582 5.40945 6.39668
2 8.04303 12.7258 11.1622
2 0.305913 4.31693 8.8755
2 8.6428 12.3565 1.8047
2 -0.0205325 8.05184 7.49757
2 4.11486 12.7434 0.549259
2 10.558 7.93478 5.81618
2 4.71248 10.4958 0.265048
2 2.63273 4.43426 7.41528
2 8.43932 0.622794 13.07
2 1.88559 7.87377 6.20249
2 8.21694 9.96055 13.3557
2 11.4101 3.709 6.84948
2 3.37978 7.44161 10.8122
2 10.8448 6.0804 4.75444
2 6.33883 10.6306 12.3697
2 1.5066 6.06759 5.37303
2 6.37863 1.21739 10.9343
2 1.99485 6.45707 8.61743
2 6.0837 1.13385 0.488276
2 11.9332 5.90821 7.54609
2 5.82755 9.69334 1.99352
2 10.6883 8.54303 9.04098
2 3.18539 10.7136 2.68044
2 3.0105 4.07584 10.578
2 8.81189 1.66935 2.2248
2 1.54759 9.46171 8.63044
2 8.58923 9.70971 1.7444
2 10.6091 3.6482 9.1322
2 3.64508 1.92519 1.91629
2 3.11652 4.00353 4.36941
2 8.90756 2.18189 10.4892
2 9.81083 8.93637 3.24886
2 3.82172 10.2923 10.8013
2 9.67477 3.82598 4.48644
2 3.67824 1.56683 10.9677
2 2.0921 8.37696 3.22859
2 9.41478 10.1377 11.2209
2 0.249768 11.1127 0.11459
2 1.77919 0.430361 6.33618
2 12.2034 1.98085 0.88191
2 11.3011 0.308451 6.38905
2 0.434185 0.192138 2.19482
2 0.130617 0.780807 8.19379
2 12.4569 0.0303885 12.3444
2 12.6591 11.9815 4.94261
2 11.4717 2.60473 3.01427
2 10.4134 11.5832 8.75857
2 0.856003 10.2763 2.32447
2 3.70394 2.57929 13.2383
2 1.28532 2.53305 2.39502
2 2.47698 11.7587 8.5111
2 11.1349 11.2228 1.86182
2 11.2295 1.24581 9.10356
2 1.2771 11.5628 10.5155
2 2.53927 0.883085 4.00114
2 10.9632 2.24976 11.9293
2 10.0921 11.3065 3.96784
2 11.5985 10.6399 11.046
2 10.3153 0.882616 3.95636
2 1.10597 2.4576 12.5209
2 1.93088 10.9731 4.49937
1 11.3786 7.69763 7.31175
1 4.68469 11.0943 1.74111
1 1.87598 4.86389 9.03293
1 7.79954 0.712701 0.975839
1 1.46273 8.18738 7.85033
1 7.10786 9.2824 1.05449
1 11.5413 4.3832 8.26655
1 4.53276 1.4663 0.502669
1 2.47766 4.7272 5.72559
1 8.03817 1.24129 11.3712
1 10.8955 7.77191 4.10955
1 4.76694 10.6087 12.1778
1 10.1723 4.744 5.81167
1 4.80066 0.481283 10.6055
1 1.38696 7.48582 4.46338
1 7.77143 11.0827 11.7072
1 9.70964 10.844 2.4981
1 2.27182 10.7406 9.78667
1 2.77582 2.607 3.23648
1 10.6212 2.50223 10.3562
1 1.93902 9.81532 3.1064
1 10.4907 10.1713 9.76259
1 9.75115 2.47941 3.46167
1 2.59881 2.73676 11.6238
1 12.7531 1.62981 2.19215
1 11.3483 0.0217012 7.96208
1 -0.114684 11.6799 1.71732
1 1.60156 0.210345 7.90821
1 0.0476999 11.3541 11.706
1 1.24469 12.5323 4.7541
1 12.2559 1.79589 12.7149
1 11.0519 12.6365 4.74047
96
 Atoms. Timestep: 16000
2 12.4112 6.7682 5.07907
2 4.35799 11.7541 10.7534
2 8.46519 5.19067 6.59687
2 7.96029 12.4156 11.6807
2 0.577617 3.6178 8.34882
2 8.4596 0.631847 1.2311
2 0.146421 8.24636 7.82574
2 4.62557 0.548376 0.0937566
2 10.744 7.68231 6.76278
2 4.48879 11.2366 13.1779
2 2.94401 4.86367 6.63883
2 7.24981 1.61161 12.7755
2 1.6957 7.66236 6.43927
2 8.16866 10.9015 0.230004
2 10.5213 3.99627 7.59109
2 4.5751 0.132403 8.16416
2 10.5992 5.59942 5.39631
2 6.40692 10.4875 11.4349
2 2.82555 6.42237 4.95258
2 6.61074 0.593075 10.2648
2 1.94829 6.29499 8.57206
2 5.94014 2.40955 0.909908
2 11.3267 5.7282 8.49841
2 5.97529 12.0365 1.71208
2 10.2796 8.22898 9.34926
2 3.30568 10.9807 2.30321
2 2.9855 3.7359 9.2153
2 8.90317 2.79829 2.20536
2 2.12469 9.0333 9.11159
2 8.81405 11.0771 2.79254
2 10.8502 3.36168 9.76751
2 3.22226 2.35104 1.83432
2 2.47185 4.00042 4.25411
2 9.38986 1.75643 11.4801
2 10.4564 8.82713 4.21935
2 3.48401 9.49527 11.3013
2 10.0829 3.31713 4.82929
2 4.42998 1.83323 10.3457
2 1.42606 8.86951 3.88356
2 8.73864 9.62666 11.2155
2 12.12 10.7573 0.2832
2 2.06056 11.7176 6.09795
2 0.552912 2.09912 0.157885
2 10.9838 0.226251 6.81516
2 0.295111 0.555896 1.68443
2 12.5745 11.8825 7.74692
2 0.333539 11.9579 12.0343
2 12.2175 12.4645 5.14429
2 10.9514 2.3858 2.18564
2 10.1247 10.5257 8.76724
2 0.604314 10.5334 1.95552
2 3.81517 3.20346 12.3609
2 1.01151 2.97603 2.48458
2 2.33392 11.4031 9.33237
2 10.7674 11.2437 1.99762
2 11.0733 0.320697 9.42141
2 0.608043 10.0185 11.4664
2 1.32763 1.28364 4.03359
2 12.0395 1.84242 11.2981
2 9.99595 10.9508 4.78471
2 10.6759 10.2256 11.2066
2 10.422 0.935629 4.26034
2 2.09618 1.91706 11.3994
2 1.9504 11.3685 3.71499
1 11.3527 7.53312 8.27828
1 4.57426 12.1592 1.30106
1 1.9213 4.47637 8.21293
1 7.99188 2.12712 0.918893
1 1.70492 7.79587 8.18321
1 7.83707 11.7263 1.63596
1 11.8542 4.06445 8.58012
1 4.20679 2.45199 0.329522
1 3.37013 4.97976 5.20245
1 8.05259 1.29115 11.2848
1 10.8769 7.32781 5.16172
1 4.80651 10.4236 11.7643
1 9.80712 4.52392 6.09082
1 5.10694 0.284225 9.69485
1 1.35182 7.3981 4.77621
1 7.88522 10.8266 11.8558
1 9.97455 10.3176 3.3006
1 2.17695 9.93343 10.5163
1 2.34258 2.57506 3.50573
1 10.8111 1.65253 10.2219
1 1.86364 10.0686 2.73165
1 9.81144 9.39568 10.0597
1 10.0993 2.61979 3.45498
1 3.4911 2.99871 10.732
1 0.0056091 2.09785 1.75542
1 10.9834 11.8722 8.31963
1 12.2368 11.721 1.64247
1 1.63037 11.5057 7.55073
1 11.7948 10.9508 11.9997
1 1.24064 12.4022 4.68262
1 0.74289 1.19987 12.0245
1 10.6305 12.5721 5.34915
96
 Atoms. Timestep: 18000
2 0.163424 8.1426 4.79916
2 4.72722 11.7167 11.4615
2 8.8747 5.3358 3.78665
2 8.19664 12.2102 11.4474
2 1.57349 3.38651 7.30438
2 7.6021 12.3288 2.19574
2 0.594434 6.73158 8.46795
2 4.33805 12.5316 0.522763
2 11.7403 7.80435 6.74012
2 4.78703 9.80985 13.2343
2 3.70885 4.94666 6.31829
2 7.61153 1.06495 13.1435
2 1.73301 7.85956 6.30425
2 8.40452 10.8374 0.0576398
2 9.57446 5.0146 6.44526
2 5.79687 0.417665 9.1026
2 11.0989 6.47919 4.3903
2 6.43671 10.3966 11.2151
2 2.17546 6.76776 4.53995
2 6.45494 1.07389 11.077
2 2.65876 5.79418 8.4299
2 5.97897 1.51913 1.56761
2 10.5106 5.92792 8.02094
2 6.39528 10.3921 1.29268
2 10.4084 8.1877 8.96105
2 4.27324 10.6522 2.71603
2 3.0917 3.23743 9.12067
2 8.74545 1.83487 2.01546
2 2.1964 8.31163 9.321
2 8.83595 10.62 3.28235
2 10.0294 3.0511 8.46054
2 3.57371 2.11398 2.15111
2 2.80175 4.27503 3.76769
2 9.58292 1.77024 11.3281
2 10.8092 9.51215 4.98258
2 3.2155 10.3911 11.1415
2 10.5039 3.65205 3.63877
2 3.74725 1.02347 10.8874
2 2.66827 9.72128 4.00337
2 8.51321 9.47673 11.1166
2 12.3473 10.3532 -0.00393244
2 1.38072 -0.117397 6.91483
2 12.5756 0.880414 -0.267461
2 10.1707 0.326863 7.05423
2 12.7214 -0.0215451 2.20411
2 11.9463 0.38951 8.72503
2 11.7895 12.7092 11.5954
2 12.3899 1.43887 5.45594
2 11.4464 2.01704 2.10102
2 9.78712 10.8588 8.97485
2 1.38193 11.2817 1.94872
2 3.65846 2.08914 12.7643
2 1.08791 2.28139 2.34364
2 1.13654 11.3024 9.61389
2 11.0853 11.2814 2.58874
2 9.65 0.670968 9.62045
2 0.189024 9.90522 10.7278
2 2.31572 1.64955 4.66807
2 11.6328 2.04643 10.6884
2 10.597 12.3161 4.95275
2 10.9089 10.0766 11.0155
2 9.98682 1.48253 4.83172
2 1.55151 1.38294 11.9905
2 1.62396 11.9708 4.30904
1 11.6514 7.24191 8.4259
1 4.72037 10.8726 1.05485
1 3.18815 4.40175 7.87519
1 7.67813 0.838452 1.49891
1 1.99649 7.39228 7.91205
1 7.91732 10.8572 1.78993
1 9.71283 4.57203 7.98279
1 4.32163 1.45024 0.682231
1 3.26725 5.5716 4.83252
1 7.9753 1.03133 11.6562
1 11.4684 8.00434 5.06309
1 4.94006 10.067 11.5251
1 10.2889 5.09671 4.76705
1 4.9181 0.271414 10.4767
1 1.82126 8.44252 4.84182
1 7.84135 10.7172 12.0107
1 10.349 10.9096 3.9028
1 1.80145 9.8897 10.5086
1 2.45133 2.70322 3.18627
1 10.175 2.2106 9.77928
1 2.50045 10.9074 3.12638
1 10.069 9.38381 9.97702
1 10.0484 2.12391 3.34767
1 3.02891 2.48946 11.0339
1 12.6265 1.41247 1.22124
1 10.5285 12.3638 8.65445
1 -0.26964 10.9986 1.46925
1 0.870183 12.7682 8.38754
1 11.9726 10.9497 11.811
1 1.22722 0.597631 5.16372
1 12.7648 1.30338 11.5531
1 10.9711 0.829938 5.76877
96
 Atoms. Timestep: 20000
2 12.3381 7.48003 4.31029
2 5.14023 11.6146 10.8468
2 7.85628 4.30692 6.37869
2 8.40265 12.6347 12.3266
2 0.504298 3.9307 10.8106
2 7.68399 12.4305 1.87282
2 0.323538 6.59096 8.30837
2 4.80098 0.167527 0.916731
2 11.2011 7.99601 6.97031
2 4.01879 10.4792 12.8623
2 2.82334 5.05954 5.65691
2 7.83385 1.76151 -0.16364
2 1.15933 7.334 6.10753
2 7.63598 9.65386 0.135152
2 10.4369 4.69324 6.36899
2 5.71264 0.766395 8.56333
2 9.77664 6.24266 5.06716
2 7.17868 10.0443 11.4971
2 2.17407 6.70979 3.60087
2 6.60094 1.35798 10.982
2 2.34745 5.73919 9.19446
2 6.1864 1.83528 1.82631
2 10.7493 5.58808 8.1516
2 5.56634 10.6413 1.40422
2 10.3809 8.40242 9.08916
2 3.47756 10.5149 2.23378
2 2.629 4.24093 11.5167
2 8.67782 2.40455 2.33284
2 2.41596 8.24788 8.99275
2 8.56755 10.2643 2.81847
2 10.1328 3.04598 8.77135
2 2.98908 2.04308 1.43218
2 2.09941 3.87462 3.14943
2 8.50795 2.31799 10.8089
2 10.3019 8.73876 4.20146
2 3.97139 9.87689 10.5824
2 9.44135 4.02759 3.96561
2 4.1623 1.29669 10.9952
2 1.24022 9.55512 4.31097
2 9.44008 9.75238 11.4693
2 0.376335 10.9764 12.9979
2 1.62376 -0.0254342 6.80511
2 12.4873 1.70782 12.8383
2 10.412 0.118473 7.04531
2 12.0556 12.6745 0.853146
2 12.6052 11.8434 8.49922
2 0.88584 0.13128 11.4456
2 -0.166675 0.467934 5.06011
2 11.4145 2.61315 1.90469
2 10.278 11.2209 9.15796
2 0.813422 10.3033 2.18559
2 4.07517 2.71745 -0.16573
2 0.872004 1.51446 2.22833
2 2.3261 11.4269 9.35061
2 11.6014 10.8079 2.26007
2 10.3565 0.997407 8.84213
2 1.12111 10.2218 10.4583
2 2.29136 1.31391 4.10918
2 11.4973 1.67375 10.9675
2 10.835 11.6905 3.89043
2 11.6371 10.5567 11.2333
2 10.4977 1.42404 4.19325
2 1.84826 1.96312 11.7786
2 1.81014 11.6209 4.29191
1 11.5297 7.12752 8.36483
1 3.93936 11.2695 0.836813
1 1.64978 5.13952 10.5711
1 7.58301 1.50747 1.48814
1 1.70856 6.84084 7.75422
1 7.10904 10.6698 1.92682
1 11.0494 4.06188 7.76357
1 4.70134 1.8805 1.14542
1 3.02264 5.25808 3.78602
1 7.76726 1.23876 11.8367
1 10.8918 7.5243 5.28318
1 5.25583 10.1829 11.7173
1 9.10347 4.94262 5.61761
1 5.42826 0.492809 9.99306
1 1.36536 7.92777 4.50877
1 8.35972 10.8706 12.2976
1 10.1794 10.3624 3.23058
1 2.49357 9.82657 9.92759
1 2.12532 2.31178 2.64305
1 10.0128 2.10085 10.1121
1 2.17709 10.7701 3.10043
1 10.7155 9.79617 10.1889
1 10.329 2.65152 3.17468
1 3.35634 2.69617 11.7438
1 12.5335 1.74337 1.09183
1 10.9883 12.5376 8.56892
1 12.7131 11.1765 1.1591
1 1.29491 12.203 8.5318
1 0.389446 11.3415 11.3007
1 1.61124 0.446727 5.24479
1 0.348699 2.20868 11.4652
1 11.0781 0.272523 5.29877
96
 Atoms. Timestep: 22000
2 11.2661 6.34347 5.61733
2 4.86536 12.2042 9.98862
2 6.67113 4.84422 5.46209
2 8.02388 12.0698 10.9244
2 0.560685 3.49755 11.9641
2 7.67097 0.86467 1.69178
2 11.9601 7.57835 8.63325
2 4.09753 0.49028 1.41381
2 9.63485 7.77033 6.74796
2 4.50966 11.057 12.4862
2 3.48214 6.51308 1.93304
2 7.63376 2.29426 11.9843
2 1.05479 7.36435 7.28515
2 8.65651 10.9233 12.9586
2 9.39204 3.74292 6.34954
2 4.64216 0.479261 7.87285
2 8.88567 5.77264 4.55272
2 6.47391 10.6036 10.883
2 1.69608 6.934 4.63953
2 7.00892 1.28177 9.50882
2 1.35842 5.79104 10.3803
2 5.55172 2.42989 0.568358
2 10.4261 5.97774 8.121
2 6.18759 11.3108 1.417
2 10.292 8.56869 9.47717
2 3.34643 10.4652 1.72176
2 2.64822 4.08238 11.1815
2 8.81413 2.79849 1.43468
2 2.54258 7.91342 9.29481
2 8.65249 10.6185 2.67937
2 11.2603 3.34376 8.70158
2 3.66946 2.62776 2.88015
2 2.53213 4.81841 4.03465
2 9.45974 2.0892 10.4864
2 9.09424 8.93687 5.06279
2 3.96677 9.91944 10.6723
2 8.75519 3.52919 4.04212
2 4.46369 2.20823 9.8813
2 3.15429 8.24078 3.87628
2 8.94326 10.2695 9.86662
2 12.1839 9.75207 0.758647
2 3.2045 12.2762 6.13339
2 0.345956 2.046 0.632745
2 12.0365 0.411188 6.58078
2 12.0418 11.9734 2.29637
2 1.928 11.9778 8.18742
2 0.377567 12.2984 11.8799
2 0.417603 0.359227 4.73253
2 10.9619 2.15595 2.19204
2 11.665 11.1192 8.29312
2 1.12352 9.30569 3.16629
2 3.47225 3.29644 0.0685515
2 0.985408 2.31664 3.06374
2 3.5798 10.2645 8.63467
2 10.5946 10.7362 3.1783
2 12.0073 0.631493 8.97318
2 1.8856 10.0708 11.3571
2 2.25722 2.16505 4.91778
2 11.5169 1.65559 11.4741
2 10.1688 11.5814 5.20455
2 11.6859 10.4543 10.8349
2 10.0131 1.30219 4.25307
2 2.33759 1.29653 12.0232
2 2.6557 11.2844 4.0869
1 10.2317 7.41164 8.19938
1 4.56918 11.2971 0.94481
1 1.39059 4.89797 11.6508
1 7.15823 2.13893 0.755524
1 0.920364 7.0268 9.07242
1 7.88831 11.5761 1.44472
1 10.6709 4.45299 7.57178
1 4.07496 2.15476 1.19898
1 2.90718 6.37778 3.59098
1 8.04671 1.08899 10.8199
1 9.75807 7.10923 5.2465
1 5.01234 11.0693 10.9465
1 8.25164 4.24357 5.23016
1 5.49825 1.29316 9.00333
1 0.461354 6.85229 5.9637
1 8.01911 10.5175 11.3706
1 9.4281 10.349 4.30701
1 2.71802 9.41444 9.82574
1 2.16161 3.36806 3.63792
1 11.0005 1.91168 9.78088
1 2.61082 9.64344 3.19596
1 10.7655 10.568 9.52535
1 9.78063 2.44734 3.04555
1 3.26764 2.64291 11.5671
1 12.1558 1.00326 2.1618
1 0.344943 12.184 7.80424
1 12.1356 10.1799 2.53898
1 3.67313 11.7137 7.61564
1 0.320399 10.4447 12.0654
1 1.965 0.371972 5.0096