96
 Atoms. Timestep: 0
2 0 7.95642 4.74695
2 4.63304 0 11.358
2 0 4.63304 4.74695
2 7.95642 0 11.358
2 0 4.63304 8.47514
2 7.95642 0 1.8641
2 0 7.95642 8.47514
2 4.63304 0 1.8641
2 10.7421 8.43088 6.61105
2 4.15858 10.7421 0
2 1.84736 4.15858 6.61105
2 8.43088 1.84736 0
2 1.84736 8.43088 6.61105
2 8.43088 10.7421 0
2 10.7421 4.15858 6.61105
2 4.15858 1.84736 0
2 10.5201 6.29473 5.04003
2 6.29473 10.5201 11.6511
2 2.06934 6.29473 5.04003
2 6.29473 2.06934 11.6511
2 2.06934 6.29473 8.18207
2 6.29473 2.06934 1.57102
2 10.5201 6.29473 8.18207
2 6.29473 10.5201 1.57102
2 10.1594 8.65935 9.20274
2 3.93011 10.1594 2.59169
2 2.43004 3.93011 9.20274
2 8.65935 2.43004 2.59169
2 2.43004 8.65935 9.20274
2 8.65935 10.1594 2.59169
2 10.1594 3.93011 9.20274
2 3.93011 2.43004 2.59169
2 2.43004 3.93011 4.01936
2 8.65935 2.43004 10.6304
2 10.1594 8.65935 4.01936
2 3.93011 10.1594 10.6304
2 10.1594 3.93011 4.01936
2 3.93011 2.43004 10.6304
2 2.43004 8.65935 4.01936
2 8.65935 10.1594 10.6304
2 0 10.703 0
2 1.88643 0 6.61105
2 0 1.88643 0
2 10.703 0 6.61105
2 0 0 1.872
2 0 0 8.48305
2 0 0 11.3501
2 0 0 4.73905
2 11.2706 2.31295 2.18973
2 10.2765 11.2706 8.80078
2 1.31887 10.2765 2.18973
2 2.31295 1.31887 8.80078
2 1.31887 2.31295 2.18973
2 2.31295 11.2706 8.80078
2 11.2706 10.2765 2.18973
2 10.2765 1.31887 8.80078
2 1.31887 10.2765 11.0324
2 2.31295 1.31887 4.42131
2 11.2706 2.31295 11.0324
2 10.2765 11.2706 4.42131
2 11.2706 10.2765 11.0324
2 10.2765 1.31887 4.42131
2 1.31887 2.31295 11.0324
2 2.31295 11.2706 4.42131
1 11.0086 7.83654 8.10972
1 4.75292 11.0086 1.49867
1 1.5809 4.75292 8.10972
1 7.83654 1.5809 1.49867
1 1.5809 7.83654 8.10972
1 7.83654 11.0086 1.49867
1 11.0086 4.75292 8.10972
1 4.75292 1.5809 1.49867
1 1.5809 4.75292 5.11238
1 7.83654 1.5809 11.7234
1 11.0086 7.83654 5.11238
1 4.75292 11.0086 11.7234
1 11.0086 4.75292 5.11238
1 4.75292 1.5809 11.7234
1 1.5809 7.83654 5.11238
1 7.83654 11.0086 11.7234
1 10.1088 10.1088 3.30552
1 2.48067 10.1088 9.91657
1 2.48067 2.48067 3.30552
1 10.1088 2.48067 9.91657
1 2.48067 10.1088 3.30552
1 10.1088 10.1088 9.91657
1 10.1088 2.48067 3.30552
1 2.48067 2.48067 9.91657
1 0 1.60471 1.57853
1 10.9848 0 8.18958
1 0 10.9848 1.57853
1 1.60471 0 8.18958
1 0 10.9848 11.6436
1 1.60471 0 5.03252
1 0 1.60471 11.6436
1 10.9848 0 5.03252
96
 Atoms. Timestep: 2000
2 12.2935 8.02834 5.37097
2 4.41985 -0.142147 11.297
2 12.0427 4.94691 5.67714
2 7.92809 12.5537 11.5228
2 -0.0033452 4.99891 8.92532
2 8.175 0.445334 1.66634
2 0.0746985 8.37518 8.72846
2 4.66452 12.6261 1.96232
2 10.4976 8.72891 7.27696
2 4.07282 10.5422 13.5257
2 1.12534 4.29333 6.61491
2 7.99644 1.19719 13.1398
2 1.80957 8.27731 6.81049
2 7.94254 11.5427 13.1826
2 9.3138 3.73259 5.53438
2 5.06407 0.991008 13.3542
2 10.3089 6.58663 4.87871
2 5.88259 10.7748 11.8201
2 1.22675 6.35915 4.64403
2 6.25123 2.10383 10.9496
2 2.06578 6.18683 8.40859
2 6.43026 1.82519 1.72338
2 11.1149 6.4766 8.68575
2 6.31453 10.6356 1.30318
2 10.1146 8.83369 9.23231
2 3.9381 10.1932 2.94637
2 2.28323 3.41392 9.03108
2 9.19704 2.49548 1.83211
2 2.01156 8.99285 8.77739
2 9.18322 10.7695 2.11748
2 10.7204 3.31432 9.04319
2 3.38513 1.64292 1.94415
2 1.3502 3.94256 3.75282
2 9.0573 1.94731 10.9185
2 10.4989 9.35926 4.20712
2 3.55916 10.6612 10.4057
2 10.4847 4.13444 3.8692
2 3.97191 2.64486 11.0997
2 1.39122 9.15081 4.20762
2 8.4053 10.1303 10.7306
2 0.381533 10.1878 13.3328
2 2.7043 12.1944 6.47004
2 0.357575 0.553897 -0.108572
2 10.9932 0.440473 6.39054
2 12.7576 12.218 1.5591
2 0.524051 -0.463434 8.19958
2 12.3482 12.4687 11.9799
2 0.407115 -0.213363 4.67618
2 11.3214 1.46869 2.01711
2 10.5614 11.8208 8.95451
2 1.27485 9.89618 2.04781
2 2.85482 1.03917 9.38252
2 0.682075 2.01702 2.63319
2 1.99304 11.5899 9.19058
2 11.3677 10.6178 1.85167
2 11.1803 1.28904 8.75656
2 1.22916 10.833 11.2301
2 2.0284 1.4811 4.53013
2 11.6057 1.64691 11.0482
2 11.1236 11.5164 4.65615
2 11.5941 10.2467 11.0772
2 10.6231 1.33611 4.18375
2 1.13367 1.84778 11.1027
2 2.0886 11.6372 3.75114
1 11.4174 8.123 8.33435
1 4.64166 10.9452 1.4674
1 1.49733 4.67881 8.40684
1 8.0192 2.05835 0.900123
1 1.67166 7.77073 8.1818
1 7.69738 11.6733 1.11769
1 11.3506 4.84995 9.27573
1 5.04817 1.13458 1.45802
1 0.722616 4.80203 5.0446
1 7.76079 1.16447 11.4564
1 10.7973 8.2936 5.20751
1 4.23233 11.3253 11.63
1 10.4055 4.90764 5.39281
1 4.9122 1.30165 11.7169
1 0.972684 7.91684 5.40003
1 7.24036 11.1604 11.2888
1 10.3283 10.7004 3.17559
1 1.81112 10.138 9.95494
1 2.13792 2.39445 3.34298
1 10.3233 2.19303 9.88299
1 2.39027 10.0565 3.33047
1 10.3172 10.4368 9.85093
1 10.5429 2.55344 3.08719
1 2.34068 2.30165 10.1984
1 -0.140818 0.977436 1.37061
1 11.8026 -0.0251681 7.91356
1 0.0942711 10.5717 1.3565
1 2.11235 -0.117498 8.22966
1 -0.283408 11.0018 11.8342
1 2.07205 12.7691 4.87717
1 -0.225397 1.09701 11.994
1 11.5987 0.152778 5.05386
96
 Atoms. Timestep: 4000
2 0.0383839 8.24427 4.87126
2 4.65308 -0.218034 11.7826
2 12.6543 4.97089 5.46908
2 8.5875 12.5822 11.5652
2 12.8113 4.79276 8.5349
2 8.13599 0.00316992 1.58102
2 -0.197296 7.55216 7.8718
2 4.07133 12.6481 1.41206
2 11.2618 8.23099 6.7233
2 4.80372 11.0532 13.031
2 1.00506 3.59514 6.76657
2 7.82392 1.44313 13.0305
2 1.97996 7.75436 6.78111
2 9.01583 11.1923 13.4478
2 10.6945 4.13335 6.94164
2 3.84637 2.04293 13.4341
2 10.8382 6.36994 4.93013
2 6.70162 10.5284 11.9153
2 1.91261 6.11647 5.15963
2 6.09718 1.04886 10.9079
2 2.07881 6.08034 8.59622
2 5.92521 1.45827 1.37898
2 10.5835 6.31106 8.1253
2 6.67585 10.9965 1.07636
2 10.6124 9.2582 8.87002
2 4.06797 10.4824 1.83816
2 2.23876 3.51356 9.19896
2 8.01478 2.02329 2.41285
2 2.40274 8.85282 8.75286
2 9.01678 11.3158 2.82502
2 10.118 3.96327 9.75277
2 3.35159 2.26387 2.47444
2 1.1821 3.34973 4.28449
2 9.5454 1.42104 11.3391
2 10.759 9.51096 4.71743
2 3.66195 10.9517 10.9973
2 10.1869 4.18947 3.67191
2 3.59615 2.0556 10.6468
2 2.36199 8.84182 3.68056
2 9.58331 9.4593 11.2102
2 12.3294 10.9781 -0.256308
2 1.48354 -0.201556 6.74223
2 12.3675 1.40067 13.1833
2 10.7995 0.168435 6.77208
2 12.4467 0.236255 1.20223
2 12.7806 12.6635 8.7238
2 12.8492 12.7091 11.1947
2 -0.166148 -0.246838 4.68146
2 11.0052 2.36433 1.60013
2 10.3164 11.6439 9.05514
2 0.859174 10.7414 2.48632
2 1.49419 0.682994 8.87008
2 0.39594 2.2284 2.25495
2 1.78051 10.927 8.938
2 11.3646 10.5907 2.03666
2 11.2304 1.58965 9.24572
2 1.20128 9.99029 11.1615
2 1.60779 0.769846 3.84638
2 11.932 2.86622 11.5733
2 10.4278 12.2707 4.26489
2 12.0282 10.6788 11.0746
2 10.7131 1.90265 4.21372
2 1.49077 1.45777 11.1429
2 2.19449 11.2875 4.40982
1 11.3455 7.75766 8.5621
1 5.1132 11.4371 0.935274
1 1.22647 4.37263 8.30844
1 7.45947 1.29774 0.934092
1 1.28252 7.69633 8.39365
1 8.28106 11.624 1.40247
1 10.9759 4.47603 8.37995
1 4.22736 1.59956 1.24164
1 1.2147 4.65038 5.40505
1 7.86734 0.804224 11.5271
1 11.4655 7.94771 5.19118
1 5.12978 11.2785 11.538
1 11.013 4.62943 5.39053
1 4.80501 1.38058 11.8293
1 1.55168 7.82778 4.95504
1 8.41973 10.6837 11.9867
1 10.7291 10.9031 3.44695
1 2.63547 10.1362 10.0224
1 1.66081 2.40493 3.07877
1 10.604 2.50754 10.7065
1 2.59214 10.4676 3.06147
1 10.6045 10.2146 10.0117
1 9.7833 2.54913 2.86721
1 2.45061 1.77307 9.82514
1 12.5402 1.91885 1.04802
1 11.1789 0.0352597 8.44788
1 12.8019 11.6966 1.13607
1 1.04541 12.1575 8.15584
1 -0.090738 11.0076 12.1302
1 1.31874 12.5318 4.94576
1 -0.09415 1.21612 11.7002
1 11.1277 0.256317 5.12247
96
 Atoms. Timestep: 6000
2 12.6231 8.34491 4.84019
2 4.7859 12.8062 12.0121
2 12.6341 4.98357 4.51307
2 8.88944 -0.321793 11.9705
2 12.4843 4.90285 8.67497
2 7.47775 -0.16099 1.3047
2 0.49814 10.0738 8.68632
2 4.40347 12.907 0.505662
2 10.9335 7.75107 6.62502
2 4.87908 10.641 13.2809
2 0.99635 5.04831 6.62798
2 8.26386 0.903344 13.7137
2 1.20211 8.27947 6.80795
2 7.60402 11.4163 13.2998
2 11.0766 4.06482 6.44917
2 4.7058 1.93168 -0.488236
2 10.6512 6.28777 4.60533
2 7.17383 10.9714 11.3887
2 1.57013 6.72857 4.62303
2 6.82071 1.58072 11.5675
2 1.01251 7.03886 8.87222
2 5.92849 1.14537 1.3006
2 10.6413 5.81845 8.6227
2 6.09775 10.9616 1.52714
2 10.9198 8.38471 9.92492
2 3.29335 10.7713 1.80509
2 1.83125 4.04799 9.08343
2 8.84858 2.07587 1.46351
2 2.66792 9.20268 9.25122
2 8.80888 10.6418 1.86452
2 10.743 3.4518 9.23287
2 2.98669 1.28694 2.51355
2 2.13951 3.80328 4.08188
2 9.16344 1.81966 10.7981
2 10.0358 9.3804 4.01251
2 4.38195 10.5346 10.5822
2 10.5431 3.45048 3.84704
2 4.40885 2.06365 10.3871
2 1.87892 9.33388 4.63373
2 9.70927 10.1572 11.4826
2 0.0622948 10.5647 -0.0209663
2 1.37778 0.122898 6.72278
2 0.108325 1.4302 -0.289951
2 10.3333 12.6643 6.60176
2 0.0770268 -0.379164 1.23857
2 12.7937 0.14677 7.96703
2 0.833447 12.6131 12.2679
2 12.2375 12.3422 5.27114
2 11.3376 1.90351 1.67644
2 11.2058 10.8667 9.10019
2 1.23266 10.9995 2.46188
2 1.52583 1.50395 9.22309
2 0.949675 2.18959 2.07752
2 1.04644 11.7333 8.34432
2 11.2985 10.6909 1.66818
2 10.5246 0.86412 8.44431
2 1.28668 9.7974 11.5829
2 0.986894 1.71201 4.5032
2 12.2324 1.11713 11.0515
2 9.8581 11.8008 3.76854
2 12.3363 10.5957 11.2759
2 10.0835 0.737559 3.95073
2 1.71963 1.90218 11.8747
2 1.39286 11.9362 4.4008
1 10.5737 7.3398 8.62883
1 4.44551 11.2799 0.765951
1 0.981502 5.33333 8.33413
1 7.38838 1.62968 1.01322
1 1.57801 8.3345 8.33816
1 7.70962 11.4831 0.863863
1 11.1649 4.51055 7.84718
1 4.24825 0.966965 1.1435
1 1.11859 5.01477 4.57793
1 8.3358 1.0822 11.9575
1 10.9698 7.82654 4.96558
1 5.50282 11.1855 11.7281
1 11.1425 4.70789 5.01802
1 5.29102 1.22457 11.7688
1 0.85987 7.99356 5.37491
1 8.67653 11.3316 12.0354
1 10.1009 10.5009 2.90507
1 2.83813 9.85606 10.767
1 2.14388 2.36488 3.45082
1 10.8395 1.98106 9.9685
1 2.48301 10.8281 3.41163
1 11.0122 10.0424 10.5004
1 10.0514 2.07711 2.7977
1 2.61534 2.3773 10.1419
1 -0.151833 1.32645 1.41947
1 11.3636 12.3617 8.07164
1 12.7863 11.1811 1.44686
1 0.990525 0.00997677 8.44846
1 0.185874 10.7915 12.347
1 0.393695 -0.0623442 5.07113
1 0.273976 0.917216 12.2974
1 10.4468 12.7771 5.08692
96
 Atoms. Timestep: 8000
2 0.0929723 7.74917 4.59056
2 4.35446 12.203 11.3095
2 0.00125064 4.89911 5.53476
2 7.85031 12.6219 12.5317
2 12.7367 4.40801 8.59095
2 8.64546 11.7393 1.6001
2 12.9108 8.79817 9.72094
2 4.52767 12.4688 1.99386
2 11.6669 9.15052 7.30285
2 3.90046 11.2263 -0.312111
2 1.51968 4.22477 6.84259
2 8.08112 2.34208 12.708
2 1.49679 7.8339 6.4173
2 7.94087 9.87647 -0.1206
2 10.7972 4.8877 6.44301
2 4.40273 0.270112 13.4042
2 10.983 6.88057 5.61056
2 5.98434 10.7312 11.7744
2 2.04797 6.14613 4.30691
2 6.44237 1.13907 11.4823
2 1.99415 5.82544 8.5681
2 6.557 1.41024 0.513353
2 11.0324 6.84661 8.69669
2 6.43494 10.2395 1.629
2 10.0143 9.24805 9.26105
2 3.47878 10.5407 2.59717
2 2.11008 2.91259 9.01182
2 8.22853 3.13288 2.06735
2 1.9778 8.42477 9.08852
2 9.5184 9.94466 2.56077
2 10.5729 3.52083 8.91349
2 3.67084 1.52838 2.2708
2 1.96228 3.63674 3.66001
2 9.08042 1.94801 10.5997
2 10.7565 9.4945 4.50783
2 3.05122 9.87818 10.7009
2 10.2866 4.67028 3.64367
2 4.0046 1.681 10.8031
2 2.20301 9.12278 3.85287
2 8.52289 11.1565 10.8463
2 12.2392 10.8737 13.3448
2 1.83525 12.4896 6.29204
2 12.6749 1.45945 0.00511544
2 11.1048 0.611956 6.54594
2 -0.0195691 -0.132965 1.799
2 0.0703018 12.0132 8.13249
2 12.5343 12.6436 11.6474
2 -0.0230952 0.39138 5.45662
2 11.6118 2.35527 2.40753
2 10.4464 11.4965 8.90075
2 0.831636 11.0891 2.47793
2 2.34501 -0.0588588 9.31577
2 1.17343 2.38499 2.33584
2 1.6935 10.7901 8.27056
2 11.3823 11.0486 1.84246
2 10.5792 0.951508 8.74756
2 0.0308989 10.603 10.4286
2 2.39924 1.26762 4.22528
2 11.8291 2.08572 10.8006
2 10.1093 12.6162 4.29851
2 10.6592 10.6996 11.189
2 10.1987 1.80174 3.8176
2 1.1865 2.04455 11.0519
2 2.03789 12.021 4.3437
1 11.3376 8.4027 8.75507
1 4.60706 10.7423 1.36325
1 1.41115 4.38492 8.5646
1 7.63714 2.58742 0.703754
1 1.87122 7.31726 7.9349
1 8.08186 10.1478 1.60157
1 11.1022 5.10213 8.1005
1 4.7289 0.876104 1.09899
1 1.60106 4.7303 5.18275
1 8.14908 0.940844 11.8701
1 11.8275 8.23295 5.42901
1 4.32852 10.7047 12.0007
1 11.0271 5.21379 4.84533
1 4.7094 1.00178 11.9015
1 1.87696 7.64686 4.9251
1 7.67364 11.0074 12.1788
1 10.6398 10.9868 3.5094
1 1.65871 9.93539 9.81884
1 2.64465 2.44005 3.08936
1 10.447 2.29898 9.76317
1 2.25478 10.559 3.69611
1 9.6862 10.514 10.0515
1 9.76236 3.29494 2.82486
1 2.72115 1.46251 9.79636
1 -0.269508 1.60629 1.6465
1 11.5222 12.6133 7.98964
1 -0.167016 11.3261 1.21377
1 1.79233 12.4719 8.13241
1 12.2107 11.0708 11.6882
1 1.35223 0.242472 4.96638
1 0.124009 1.11683 12.0322
1 11.2708 0.772673 4.8253
96
 Atoms. Timestep: 10000
2 0.0631739 7.689 5.45157
2 4.62948 12.6153 11.1826
2 -0.197865 4.08583 5.07564
2 7.90461 -0.200641 12.2592
2 0.0838511 4.28919 8.93744
2 8.08409 -0.1049 1.23355
2 12.5235 8.40895 8.23231
2 4.9326 12.8532 1.60287
2 10.934 6.86675 7.16705
2 4.40096 10.6092 13.3507
2 2.0353 4.93237 6.87656
2 7.94294 1.85341 0.039957
2 1.67055 8.40123 6.59759
2 7.98178 10.8992 -0.307087
2 11.3148 3.89638 6.96992
2 3.93854 1.56876 13.196
2 11.8298 5.84009 5.68527
2 6.60585 11.1927 11.4644
2 1.85563 6.28393 4.61263
2 5.99659 2.05375 11.5431
2 1.3492 6.8217 8.67144
2 6.15573 1.79868 1.51244
2 10.9586 5.88357 9.04898
2 6.2115 10.9094 1.51814
2 10.4505 9.08227 9.34687
2 3.42881 10.6704 2.07683
2 2.63333 4.07112 9.58702
2 9.45433 1.96242 2.10627
2 1.67209 9.28977 9.24609
2 8.88498 10.0954 2.42441
2 10.4641 3.41611 9.67958
2 3.50137 2.01679 1.57742
2 1.50982 3.9644 3.53975
2 8.89108 2.26063 11.4757
2 10.8701 8.98016 4.77386
2 3.70436 10.0581 10.4806
2 10.3351 3.74256 4.47466
2 3.76277 1.89399 10.5602
2 2.41259 8.70258 3.88781
2 8.94272 10.7282 10.7001
2 12.1826 10.793 13.0827
2 1.23 0.629628 6.0626
2 0.204366 1.64684 -0.415739
2 10.5516 12.6635 6.76678
2 0.110521 12.4797 1.56713
2 12.7107 12.8288 7.49147
2 12.7157 0.0198945 11.6575
2 12.2934 12.8346 4.57855
2 11.4009 2.02889 1.70279
2 10.1046 12.0564 9.1911
2 0.868101 10.1337 2.11612
2 2.3225 1.04479 8.64054
2 1.37007 1.9683 1.60942
2 2.13156 12.0736 8.78208
2 11.2 9.95171 2.16221
2 11.0484 1.33628 8.88116
2 1.35553 10.9752 11.2191
2 1.98099 1.27351 3.91897
2 11.3174 1.49437 11.5416
2 9.91362 11.795 3.61122
2 11.7325 10.4745 10.5546
2 10.9353 1.32749 4.15616
2 0.862197 2.38181 10.5993
2 1.76954 11.6463 3.84539
1 11.0903 7.6629 8.74148
1 4.65638 11.0717 1.32401
1 1.49149 5.17922 8.68639
1 7.89963 1.70324 1.53225
1 1.09247 8.29309 8.0819
1 7.92176 11.4487 1.52532
1 11.499 4.14243 8.56273
1 4.70962 1.21828 0.853593
1 1.42803 4.65459 5.33294
1 7.7313 1.52448 12.2883
1 11.4788 7.45798 5.82326
1 4.73343 10.8055 11.7189
1 11.3308 4.16967 5.50737
1 4.4798 1.14677 11.5745
1 1.70809 7.80136 5.01372
1 8.05532 11.1493 11.7988
1 10.1857 10.1451 3.56152
1 2.42674 10.7693 9.82151
1 2.49113 2.50074 2.8895
1 10.2747 2.04098 10.6567
1 2.40156 10.2384 3.2441
1 10.2953 10.5623 9.94098
1 10.3882 2.67402 3.23072
1 2.42222 2.48544 9.87341
1 0.0627554 1.17951 1.20546
1 11.2078 0.043152 8.10603
1 12.5071 10.6867 1.15698
1 1.42378 0.00521518 7.64011
1 12.7501 10.9715 11.4912
1 0.973836 -0.00906021 4.41908
1 -0.196799 1.64365 11.8561
1 10.7546 -0.185965 5.19117
96
 Atoms. Timestep: 12000
2 -0.0695271 8.22457 5.37845
2 4.8509 12.4675 11.0196
2 12.7634 5.44111 5.29789
2 8.38037 0.00137242 11.6599
2 0.545862 4.69827 8.53503
2 7.51401 0.0414467 1.05842
2 0.548107 8.05624 8.27456
2 4.19411 -0.256394 1.17603
2 11.1863 7.55242 6.89526
2 4.35909 10.6593 12.7334
2 2.27903 4.24674 5.89784
2 8.22252 2.08304 0.353566
2 2.37622 8.33045 6.68845
2 8.18081 11.1216 13.1091
2 10.6945 4.30836 6.98887
2 4.33349 1.71548 13.1369
2 10.941 6.37231 4.70709
2 6.76469 11.1119 10.7724
2 1.60928 6.32535 5.33433
2 6.45734 1.38606 11.608
2 2.45062 6.20939 8.09539
2 5.92821 2.15318 1.62233
2 11.5201 5.66204 9.05437
2 6.00214 11.0561 1.01958
2 11.4807 8.51912 9.74601
2 3.70508 10.2454 2.51017
2 2.69296 3.88899 9.05016
2 7.96964 1.62322 3.07647
2 2.83751 9.11238 8.71827
2 8.67237 10.5105 2.17881
2 11.1524 3.40834 9.58967
2 3.12333 2.15661 2.2714
2 1.65653 3.78521 3.28218
2 9.13523 2.23805 11.125
2 10.4778 9.62654 4.41082
2 4.04446 10.8008 9.71441
2 9.60296 3.55323 4.9885
2 3.48325 1.99457 10.6663
2 1.76089 9.0723 4.06672
2 9.29835 10.3354 10.7848
2 0.268995 11.7171 0.144337
2 1.76479 0.37857 6.46727
2 -0.212242 1.90051 0.112461
2 10.3372 12.4496 6.75807
2 11.7835 0.255579 1.65142
2 12.3694 0.0629178 8.04675
2 0.683127 12.5769 12.0304
2 12.4957 12.6465 5.28044
2 10.5196 2.49217 2.41257
2 11.1142 10.7967 9.13103
2 0.640206 11.0058 2.78959
2 1.27113 1.72813 8.61662
2 -0.229636 2.09119 2.60466
2 1.97627 11.9982 8.67548
2 11.5769 10.5873 1.67135
2 10.0715 0.588314 9.44208
2 1.13578 10.0305 11.1362
2 0.990836 0.64111 3.70223
2 12.3281 1.51944 10.9435
2 10.3468 11.6368 3.83291
2 11.466 10.7005 11.5339
2 10.2536 1.24853 4.91898
2 1.60128 2.04421 11.5809
2 2.09876 11.6043 4.67957
1 11.7962 7.34384 8.4665
1 4.30355 11.0465 0.797827
1 2.25293 4.57935 7.57702
1 7.2067 1.55763 1.54396
1 2.15472 7.73484 8.14757
1 7.65645 11.2974 1.19586
1 11.946 4.15129 8.53454
1 4.38402 1.4119 1.10022
1 1.48282 4.63365 4.54373
1 8.01854 1.52782 12.2113
1 11.3038 8.1371 5.32107
1 5.16728 10.6645 11.0099
1 10.9406 4.79687 5.17183
1 4.73835 1.12116 11.6756
1 1.82328 7.97244 5.34691
1 8.37109 11.4014 11.3749
1 10.1567 10.4551 2.75032
1 2.34178 10.6121 9.63609
1 1.47434 2.20728 2.91082
1 10.717 1.70867 10.3206
1 2.23442 10.4731 3.39229
1 10.8093 9.89164 10.2685
1 9.51617 2.10515 3.79045
1 2.02166 2.42274 9.95373
1 11.6662 1.89828 1.346
1 10.9481 12.208 8.33052
1 -0.257813 11.9344 1.46799
1 1.11854 0.0433954 7.93827
1 0.182962 10.8949 12.1115
1 1.16365 -0.298751 4.92779
1 0.192021 1.26297 12.2583
1 10.6637 12.7154 5.19064
96
 Atoms. Timestep: 14000
2 -0.0605742 7.9335 4.65361
2 4.7548 -0.315687 11.3879
2 12.3279 4.40371 4.29094
2 8.77513 0.111072 12.0513
2 0.0148315 5.21635 8.6835
2 8.07598 0.379781 1.25528
2 12.6608 8.80569 7.93448
2 3.79588 12.486 1.10616
2 10.6605 8.33588 6.38184
2 4.39016 11.2254 13.1406
2 0.956367 4.37102 6.40337
2 7.89735 2.21363 0.26992
2 1.39305 9.09327 6.65083
2 8.73387 11.3544 13.4641
2 11.2572 4.04986 6.76817
2 3.99226 0.915609 13.0213
2 10.4661 6.20913 4.45933
2 6.73088 11.3352 11.623
2 1.60159 6.32587 4.89475
2 6.26054 2.08653 12.2237
2 1.39282 6.71796 7.97894
2 5.26399 1.90163 1.37712
2 10.9152 6.52592 8.10928
2 6.56222 11.509 0.997133
2 10.0638 8.78561 9.14019
2 3.97881 10.3465 2.01739
2 2.04225 4.29418 9.19387
2 8.0304 1.69579 2.98786
2 1.90215 8.64217 9.35436
2 8.60019 10.418 2.37263
2 10.4692 4.35637 9.27675
2 2.6294 1.89192 1.38847
2 1.53145 3.76767 3.54797
2 9.79605 2.56112 11.4896
2 10.2583 8.71342 3.90887
2 4.13024 10.2138 10.3549
2 10.4035 2.91863 4.23502
2 3.86224 2.28004 10.7494
2 2.76174 8.80013 4.1485
2 8.84031 10.5739 10.5673
2 12.7694 10.759 0.0886036
2 2.32162 12.5992 6.87868
2 0.131367 1.07237 -0.0728714
2 10.7502 12.2362 6.91145
2 12.4733 12.5318 1.63397
2 0.00917938 11.9105 7.99862
2 0.610839 12.5018 11.4468
2 0.208226 12.3865 4.62708
2 11.0934 2.13144 2.12319
2 11.1598 11.2672 9.49943
2 0.901375 10.5923 2.54427
2 2.30689 1.05332 9.20529
2 0.294867 1.66321 2.42807
2 2.11127 11.1245 8.87746
2 11.2544 10.1259 2.59941
2 11.363 1.47352 9.14286
2 1.50373 10.207 11.2927
2 2.35124 1.40569 4.68168
2 11.674 1.9313 11.0877
2 10.3124 11.4741 4.40994
2 11.9452 10.104 11.421
2 10.3308 0.835484 4.51459
2 1.5293 2.53166 11.3723
2 2.0596 11.734 3.68565
1 10.8749 8.25517 7.9488
1 5.04093 11.273 1.09606
1 1.39148 5.00595 7.95403
1 6.87196 1.53791 1.77782
1 1.17275 8.35718 8.1022
1 8.14994 11.7325 1.22574
1 11.3749 4.95178 8.16893
1 4.05599 1.14009 1.10771
1 1.17014 4.63683 4.83821
1 8.45647 1.72103 12.1666
1 11.1014 7.62812 4.94066
1 5.04983 11.1127 11.6252
1 10.7673 4.56323 4.97762
1 4.82713 1.36255 11.6542
1 1.64014 8.06917 5.23993
1 8.22902 11.3692 11.8421
1 9.96546 10.0947 3.51087
1 2.41831 9.97738 10.131
1 1.87139 1.88833 2.98384
1 10.8322 2.83366 10.0026
1 2.73516 10.2295 3.21624
1 10.4787 10.0077 10.4127
1 9.84489 1.9861 3.27936
1 2.39309 2.70247 10.0026
1 12.0269 1.12121 1.22105
1 11.357 12.5205 8.37324
1 12.399 10.8424 1.76748
1 1.6508 12.4886 8.43817
1 0.270257 11.1377 11.9667
1 1.75182 12.6395 5.13685
1 0.290289 1.37521 11.6782
1 11.1732 12.4979 5.25074
96
 Atoms. Timestep: 16000
2 12.0848 8.12448 4.79619
2 4.33332 12.8581 12.209
2 12.6008 4.53688 5.08867
2 7.64724 12.6393 11.2541
2 12.7018 4.22887 8.06566
2 8.32803 0.561342 1.24856
2 -0.423907 8.82392 8.35236
2 5.19576 12.8651 2.08436
2 10.7206 7.98353 6.30153
2 4.3985 10.7006 0.137029
2 1.73617 4.08151 6.48326
2 8.48094 1.63301 13.3045
2 0.716156 7.51912 6.28476
2 8.68892 11.2636 13.1775
2 10.6062 4.78234 6.74837
2 4.3009 1.62003 0.0955175
2 10.1059 6.13551 5.00147
2 6.15217 11.0553 11.5843
2 1.5199 5.86027 4.73381
2 6.31243 1.84589 11.6798
2 1.95831 6.26309 8.03534
2 5.95685 2.15527 1.88804
2 11.569 6.68457 8.06391
2 6.61996 11.192 1.31605
2 10.549 9.58711 8.72773
2 3.87885 10.0065 2.64247
2 1.79944 4.00593 9.40224
2 8.71921 2.30823 2.25636
2 2.18841 8.69238 9.09984
2 9.02857 10.7186 2.23997
2 10.5628 3.75497 9.63582
2 3.70354 1.83264 2.82361
2 2.41951 3.41008 3.80459
2 8.82314 1.71343 10.4791
2 10.2043 9.03152 3.71792
2 3.50818 10.0251 11.3717
2 10.0837 3.38504 4.19388
2 3.68831 1.99195 11.1633
2 1.31108 8.6339 3.51654
2 9.08092 10.1666 10.6653
2 -0.0705806 10.5799 -0.128029
2 2.0643 12.8309 6.8601
2 -0.115894 1.81949 13.6686
2 11.1325 0.475423 6.55286
2 13.2031 12.5596 1.89982
2 0.126489 0.172808 8.69271
2 12.9548 12.5835 11.8265
2 -0.0200347 12.4561 4.96439
2 11.2801 2.03011 1.95758
2 10.5586 12.3141 8.5128
2 1.84721 10.3744 1.99438
2 2.12096 1.22048 9.26827
2 0.702283 1.59646 1.9989
2 2.41952 11.3852 8.88931
2 11.9963 10.8376 2.0909
2 10.367 1.41439 8.80165
2 0.93412 10.0925 11.2072
2 1.84281 1.14985 4.2842
2 11.4336 1.96352 11.1493
2 10.9259 12.0599 4.07148
2 11.3209 10.7858 11.2942
2 11.5375 1.1732 3.82861
2 1.06676 2.16068 11.2321
2 2.14268 11.0082 4.40056
1 11.2766 8.22926 7.91014
1 5.06173 10.9085 1.73508
1 1.23917 4.61822 8.11658
1 7.68546 1.93547 1.25599
1 1.10343 7.7671 8.29588
1 8.12353 11.8217 1.11188
1 11.1914 4.78833 8.35871
1 4.57668 1.07136 1.79405
1 1.24347 4.29268 4.86838
1 7.82766 1.42679 11.6318
1 10.4827 7.68453 4.75737
1 4.30414 11.1151 12.2989
1 10.8182 4.52704 5.17992
1 4.73964 1.27918 12.4215
1 0.547941 7.51249 4.8131
1 7.81239 10.7476 11.8021
1 10.7399 10.5857 2.90672
1 2.29016 10.2397 10.0041
1 1.84305 2.03061 2.93213
1 10.3539 2.3489 10.116
1 2.38265 9.80029 3.35115
1 10.4496 10.8397 9.73913
1 10.2093 2.10128 3.26395
1 2.15833 2.49478 10.2061
1 12.4296 0.932799 1.28326
1 11.7657 0.492344 8.03001
1 0.567075 11.2399 1.28389
1 1.76409 -0.206285 8.40179
1 -0.217577 11.0045 12.0483
1 1.6781 12.8069 4.8055
1 -0.0598352 1.39812 11.955
1 11.5649 0.113294 4.94003
96
 Atoms. Timestep: 18000
2 0.192604 8.20947 5.34146
2 3.83727 -0.0466458 12.0312
2 -0.108532 5.26851 4.6434
2 7.85982 12.7243 11.185
2 12.3864 4.99961 7.32826
2 8.3943 12.688 1.32017
2 12.4655 7.3517 8.71548
2 4.51361 -0.40484 1.49039
2 11.3601 8.60638 6.18701
2 4.36618 10.9067 -0.0353307
2 2.05779 4.17103 6.40509
2 8.41711 1.48625 12.9996
2 1.1175 7.86382 7.27275
2 8.00498 10.7223 13.296
2 10.5949 4.72723 5.62253
2 5.11314 1.78361 -0.0584478
2 11.2656 6.64064 4.60443
2 6.04178 11.3224 11.4143
2 1.81486 6.15017 5.2168
2 6.04391 1.50421 11.436
2 1.41622 5.58809 8.93767
2 6.69889 1.19907 1.90369
2 10.4285 6.60513 7.31804
2 6.29971 10.617 1.51179
2 10.7169 9.34457 8.76174
2 3.61928 10.2481 2.99866
2 1.48363 3.62709 9.57051
2 9.23941 1.52077 1.99599
2 1.84104 8.34784 10.1885
2 8.85551 10.9277 2.55853
2 10.1988 4.36561 8.54045
2 4.10655 1.60204 2.954
2 2.45037 3.37214 4.18818
2 8.83976 2.12478 10.2276
2 10.4323 8.86989 3.63347
2 3.52887 10.1641 11.6813
2 10.5168 3.5428 3.59638
2 3.48185 2.66908 11.543
2 2.6203 8.59318 4.23192
2 8.68004 10.5406 10.3658
2 1.14304 12.4727 11.8609
2 1.93211 12.9074 7.30999
2 12.5587 1.71702 13.2976
2 10.9178 12.7136 6.63037
2 0.0698623 11.2924 -0.0506922
2 0.0838905 0.260119 8.92129
2 12.004 -0.221752 11.8178
2 -0.186819 12.4051 5.58718
2 11.6109 2.30515 1.71908
2 10.594 12.6281 9.36229
2 0.675387 9.85944 1.94372
2 2.07553 1.30208 9.60652
2 1.22805 1.06893 2.76483
2 2.3622 11.053 9.30472
2 10.8685 10.3997 1.52157
2 11.4943 2.24575 8.63822
2 0.770191 10.112 11.4796
2 1.80194 0.526776 4.76136
2 11.1922 2.74536 11.0704
2 10.6331 11.1291 4.22619
2 11.7976 10.6841 10.7237
2 11.3128 0.945681 3.9382
2 0.463532 2.43924 10.9633
2 2.16072 11.3132 5.06322
1 11.2091 8.00556 7.56842
1 4.52845 11.0217 1.78024
1 1.14557 4.38757 7.74298
1 8.01887 1.19526 1.05445
1 1.19578 7.07252 8.84726
1 7.92312 11.1736 1.29187
1 10.8934 5.07121 7.17655
1 5.0108 1.20906 1.72809
1 1.56254 4.57941 5.05405
1 7.73509 1.4165 11.5791
1 11.6335 8.38212 4.572
1 4.70671 11.4793 12.1284
1 11.3721 4.7034 4.43822
1 4.50024 1.30395 11.9351
1 1.69232 8.06769 5.70563
1 7.85583 11.0739 11.7705
1 10.1091 10.266 3.02828
1 2.13934 10.0853 10.6734
1 2.57304 1.79453 3.74168
1 10.22 3.13711 9.49461
1 2.0462 10.1138 3.52019
1 10.2579 11.0402 9.55022
1 10.5901 1.85905 3.09921
1 2.00538 2.61903 10.6337
1 0.05147 1.73755 1.15846
1 11.4869 0.647939 8.40117
1 12.3473 10.7226 1.23212
1 1.68124 -0.358743 8.80807
1 12.787 11.2655 11.7793
1 1.52745 12.5854 5.88543
1 12.0495 1.60832 11.7846
1 11.0582 -0.248481 5.04799
96
 Atoms. Timestep: 20000
2 -0.258634 7.48084 4.6371
2 4.80214 0.0958616 12.5123
2 0.100401 4.59061 5.87146
2 7.89598 0.273892 11.2589
2 0.0831559 5.52121 9.06301
2 8.62117 0.0230777 1.68458
2 12.4792 8.36287 7.69857
2 5.3452 0.123511 1.44914
2 10.4355 7.94763 6.30696
2 4.54921 11.2308 0.195285
2 2.18183 4.82934 6.98326
2 8.16313 2.2629 13.293
2 1.40175 8.12155 6.27771
2 7.01962 11.7699 -0.623008
2 11.2741 4.37605 7.30522
2 4.10485 2.24134 0.0474141
2 11.2453 6.22432 5.45639
2 6.15142 10.9309 11.3332
2 1.76569 6.12848 4.16491
2 6.03796 2.4288 11.3883
2 1.87931 6.72743 8.60071
2 6.56298 2.07318 1.7752
2 10.8084 6.5602 8.72876
2 6.53235 11.2932 2.05589
2 11.0555 9.44105 8.87547
2 3.97563 10.5807 2.76988
2 2.22996 3.8314 9.51885
2 8.61064 2.28438 2.58119
2 1.91773 9.55601 9.32944
2 9.40547 10.8827 1.56686
2 10.8507 3.89356 9.58119
2 3.91618 2.22277 2.61276
2 1.62198 3.08172 4.63466
2 8.71885 2.01561 10.48
2 10.5053 8.70374 3.54218
2 3.70796 11.4902 10.6842
2 10.4245 3.61268 4.26808
2 3.24273 1.59285 10.9322
2 2.11239 8.86061 3.68198
2 9.26796 11.2762 10.9258
2 12.5732 1.22039 13.5216
2 1.67147 12.4386 6.4593
2 12.5803 0.0417675 1.46239
2 11.0708 11.8066 6.80661
2 0.192654 10.8657 13.4091
2 -0.207229 12.6718 8.00169
2 -0.317803 -0.386639 11.3336
2 12.7504 12.6474 5.45543
2 11.2858 2.33443 2.13345
2 10.7003 11.6338 9.51892
2 1.26191 10.7535 1.82318
2 1.72538 1.34879 8.52842
2 1.13626 2.24578 2.14828
2 2.3218 11.7689 8.77202
2 11.7623 10.934 2.37882
2 10.4153 1.04761 8.662
2 1.12473 11.2603 10.9486
2 2.14899 0.578788 3.68385
2 11.4835 1.52488 10.2891
2 10.1578 11.5916 3.81159
2 11.5122 10.227 11.327
2 10.343 0.542644 4.51213
2 0.683981 2.02053 11.2271
2 1.60036 11.0847 4.2327
1 10.9375 8.03259 7.69703
1 4.8849 11.6537 1.8131
1 1.62512 5.12163 8.41061
1 8.04685 1.78764 1.11164
1 1.04787 8.33546 8.3298
1 7.90894 11.4738 1.17938
1 11.5554 5.15352 8.67954
1 4.78568 1.60836 1.64378
1 1.63719 4.60519 5.20741
1 7.63544 1.79354 11.6199
1 11.0813 7.76434 4.63167
1 4.72254 11.3501 11.9759
1 11.4341 4.65274 5.44177
1 4.33506 2.00106 11.9522
1 1.42878 7.58633 4.49189
1 7.67963 11.6198 11.504
1 10.3931 10.2009 2.71974
1 2.35713 10.8893 10.1737
1 2.41662 2.21476 3.33584
1 10.0995 2.51719 9.75021
1 2.3541 10.2187 3.06378
1 10.4059 10.2528 10.1831
1 10.0737 2.17015 3.56282
1 1.94648 2.13663 9.953
1 12.7108 1.7006 1.49247
1 11.2408 12.5391 8.30537
1 -0.0652735 11.2933 1.33669
1 1.41837 -0.020863 7.90027
1 12.8986 11.1891 11.9969
1 1.35035 12.5882 4.86622
1 -0.543105 1.12071 11.6662
1 11.1219 12.166 5.10843
96
 Atoms. Timestep: 22000
2 -0.263239 8.007 5.15307
2 4.77051 12.239 11.5515
2 -0.136665 4.95535 4.9441
2 8.45286 0.0508178 11.6582
2 0.0133519 4.2583 8.2651
2 7.99922 -0.462778 1.81949
2 -0.131549 7.70155 8.31687
2 4.44068 12.5728 1.77521
2 11.3781 8.49627 6.83581
2 5.42046 10.3389 -0.207733
2 1.76294 5.00958 6.67807
2 8.3185 1.86457 13.6681
2 1.97148 8.37741 6.83871
2 8.03904 10.9099 -0.328581
2 11.1692 4.48513 6.6311
2 4.56692 0.829883 0.0137878
2 10.7863 6.55286 4.86576
2 6.46777 11.1476 11.7239
2 1.89221 6.73511 4.73939
2 5.79206 0.846026 11.6843
2 1.66371 6.06638 9.09854
2 6.5274 1.7084 2.00479
2 10.8908 6.33578 8.65996
2 6.57523 10.1307 1.48714
2 11.3334 9.14261 9.35537
2 3.06073 10.8197 2.01641
2 2.4022 3.52277 9.3693
2 9.46871 1.80126 1.60261
2 1.86047 9.70096 8.90174
2 8.73223 10.6003 3.03147
2 10.7374 3.62547 9.61071
2 3.74689 2.31954 2.20871
2 2.04943 3.96338 3.9888
2 9.07625 1.89816 10.545
2 11.1171 9.74068 4.42972
2 3.54085 10.2229 10.9173
2 10.5382 4.11218 3.55963
2 3.27601 1.67251 11.4138
2 1.976 9.03375 3.92798
2 9.30705 10.5742 11.201
2 11.9238 1.38818 13.432
2 1.74624 0.513796 6.41395
2 -0.993933 -0.0664591 1.24642
2 10.8226 -0.129472 6.15744
2 -1.00969 11.1624 13.5081
2 -0.174336 -0.167171 8.17521
2 -0.133016 13.1793 12.03
2 -0.416675 0.821694 4.66941
2 11.552 2.43356 1.87069
2 10.3584 11.6983 8.54325
2 0.567508 10.9319 1.75889
2 1.79539 1.16268 9.33755
2 0.954522 2.36565 1.62263
2 2.39379 11.9402 9.10085
2 11.1581 10.803 2.13904
2 10.6523 0.780176 8.6203
2 0.714186 10.7699 11.1383
2 2.02688 1.0014 3.5306
2 11.2763 1.89373 10.9468
2 10.3039 12.3674 4.17347
2 11.289 11.5488 10.7112
2 10.3294 1.42276 3.83403
2 0.924433 1.68505 11.287
2 1.68046 12.2129 3.93849
1 11.506 7.83948 8.48769
1 4.83304 10.8378 1.43998
1 1.67188 4.57358 8.35033
1 7.98653 1.17028 1.32042
1 1.4615 7.87501 8.19996
1 8.13139 11.0558 1.33385
1 11.5125 4.71183 8.43045
1 4.87586 1.10438 1.93768
1 1.41876 5.12711 4.99206
1 7.74493 1.48257 12.052
1 11.0735 8.06706 5.31178
1 4.82131 10.6868 12.1362
1 11.2989 5.00216 4.78855
1 4.26984 0.580446 12.1646
1 1.53724 8.20076 5.14516
1 8.41755 11.76 12.2269
1 10.1563 10.7997 3.50317
1 2.31548 10.5838 10.1745
1 2.14648 2.7139 2.91143
1 10.3483 1.8827 9.6902
1 1.83448 10.6719 3.30502
1 10.443 10.5239 9.93872
1 10.2875 2.71036 2.78276
1 2.24327 2.17507 10.4376
1 12.6835 1.7313 0.932136
1 11.4304 12.8848 7.73422
1 12.2168 11.6077 1.15917