96
 Atoms. Timestep: 0
2 0 7.95642 4.74695
2 4.63304 0 11.358
2 0 4.63304 4.74695
2 7.95642 0 11.358
2 0 4.63304 8.47514
2 7.95642 0 1.8641
2 0 7.95642 8.47514
2 4.63304 0 1.8641
2 10.7421 8.43088 6.61105
2 4.15858 10.7421 0
2 1.84736 4.15858 6.61105
2 8.43088 1.84736 0
2 1.84736 8.43088 6.61105
2 8.43088 10.7421 0
2 10.7421 4.15858 6.61105
2 4.15858 1.84736 0
2 10.5201 6.29473 5.04003
2 6.29473 10.5201 11.6511
2 2.06934 6.29473 5.04003
2 6.29473 2.06934 11.6511
2 2.06934 6.29473 8.18207
2 6.29473 2.06934 1.57102
2 10.5201 6.29473 8.18207
2 6.29473 10.5201 1.57102
2 10.1594 8.65935 9.20274
2 3.93011 10.1594 2.59169
2 2.43004 3.93011 9.20274
2 8.65935 2.43004 2.59169
2 2.43004 8.65935 9.20274
2 8.65935 10.1594 2.59169
2 10.1594 3.93011 9.20274
2 3.93011 2.43004 2.59169
2 2.43004 3.93011 4.01936
2 8.65935 2.43004 10.6304
2 10.1594 8.65935 4.01936
2 3.93011 10.1594 10.6304
2 10.1594 3.93011 4.01936
2 3.93011 2.43004 10.6304
2 2.43004 8.65935 4.01936
2 8.65935 10.1594 10.6304
2 0 10.703 0
2 1.88643 0 6.61105
2 0 1.88643 0
2 10.703 0 6.61105
2 0 0 1.872
2 0 0 8.48305
2 0 0 11.3501
2 0 0 4.73905
2 11.2706 2.31295 2.18973
2 10.2765 11.2706 8.80078
2 1.31887 10.2765 2.18973
2 2.31295 1.31887 8.80078
2 1.31887 2.31295 2.18973
2 2.31295 11.2706 8.80078
2 11.2706 10.2765 2.18973
2 10.2765 1.31887 8.80078
2 1.31887 10.2765 11.0324
2 2.31295 1.31887 4.42131
2 11.2706 2.31295 11.0324
2 10.2765 11.2706 4.42131
2 11.2706 10.2765 11.0324
2 10.2765 1.31887 4.42131
2 1.31887 2.31295 11.0324
2 2.31295 11.2706 4.42131
1 11.0086 7.83654 8.10972
1 4.75292 11.0086 1.49867
1 1.5809 4.75292 8.10972
1 7.83654 1.5809 1.49867
1 1.5809 7.83654 8.10972
1 7.83654 11.0086 1.49867
1 11.0086 4.75292 8.10972
1 4.75292 1.5809 1.49867
1 1.5809 4.75292 5.11238
1 7.83654 1.5809 11.7234
1 11.0086 7.83654 5.11238
1 4.75292 11.0086 11.7234
1 11.0086 4.75292 5.11238
1 4.75292 1.5809 11.7234
1 1.5809 7.83654 5.11238
1 7.83654 11.0086 11.7234
1 10.1088 10.1088 3.30552
1 2.48067 10.1088 9.91657
1 2.48067 2.48067 3.30552
1 10.1088 2.48067 9.91657
1 2.48067 10.1088 3.30552
1 10.1088 10.1088 9.91657
1 10.1088 2.48067 3.30552
1 2.48067 2.48067 9.91657
1 0 1.60471 1.57853
1 10.9848 0 8.18958
1 0 10.9848 1.57853
1 1.60471 0 8.18958
1 0 10.9848 11.6436
1 1.60471 0 5.03252
1 0 1.60471 11.6436
1 10.9848 0 5.03252
96
 Atoms. Timestep: 2000
2 0.251807 7.20085 5.0099
2 4.05954 0.971316 10.741
2 11.4934 4.21192 5.14569
2 7.86762 0.986223 12.5276
2 0.825865 4.7457 9.72753
2 7.85533 0.504634 1.83622
2 0.530739 8.02617 8.7096
2 4.37983 12.7391 0.737466
2 11.4201 8.25852 7.37314
2 4.50942 11.0913 12.6898
2 2.03503 3.89047 6.27007
2 8.26304 2.97472 0.348252
2 2.48759 7.54325 6.2275
2 8.11788 11.1377 0.024721
2 0.337009 4.83863 6.637
2 4.05673 2.37266 13.0754
2 10.164 6.61758 4.83191
2 6.30451 12.378 11.6122
2 2.14077 5.41002 4.44111
2 5.93383 2.73231 11.5834
2 2.22272 5.4857 8.1486
2 6.18058 2.579 1.68684
2 11.2596 6.31484 8.93306
2 6.44566 10.5752 1.72451
2 10.3882 8.73618 9.27142
2 3.7137 10.3165 1.68648
2 4.04577 4.53196 8.57825
2 9.20726 2.55584 2.62343
2 2.70404 8.51175 8.70697
2 8.81977 10.9838 2.91606
2 11.0087 3.48583 8.69043
2 3.22644 2.01186 2.35015
2 0.926505 2.73388 4.51524
2 8.93366 2.90241 10.9259
2 10.5247 8.98524 4.54547
2 3.78856 10.4725 10.689
2 11.273 3.8408 3.14494
2 2.43394 3.47425 11.3194
2 2.16129 8.48402 3.61503
2 9.03397 11.7813 10.8901
2 0.311238 9.70785 -0.150707
2 1.59138 12.1995 6.8561
2 0.375369 1.73583 12.4438
2 10.4036 12.7743 6.9665
2 11.8838 11.9579 0.613198
2 12.3079 11.8974 8.72354
2 0.173051 12.0217 11.4052
2 12.3825 11.6684 4.98877
2 11.3203 1.26573 2.07249
2 10.1714 11.2704 8.90227
2 1.2244 10.1893 2.21035
2 0.950085 0.673496 9.73983
2 1.17857 1.5085 1.72115
2 2.3913 11.0077 9.20778
2 11.2971 9.90723 2.27667
2 10.1432 1.36048 8.67397
2 1.69312 9.30807 11.2541
2 1.34921 0.295737 3.61594
2 10.7489 1.4282 10.8728
2 9.94482 10.9046 4.85088
2 11.6568 10.1953 10.8167
2 11.3744 0.631199 4.42219
2 1.10129 5.89682 11.9774
2 2.44899 11.0913 4.24897
1 11.4743 7.87867 9.21857
1 4.94322 10.9449 0.872924
1 2.59379 4.10345 7.72344
1 7.93412 2.05686 1.84512
1 2.16524 7.23117 7.8444
1 7.77884 11.4412 1.79061
1 12.3502 4.96561 8.37454
1 4.61604 1.71473 1.34461
1 0.582739 4.1931 4.98803
1 7.62495 2.4479 12.1119
1 11.1733 7.67057 5.59087
1 4.65878 12.2765 11.0075
1 10.1798 5.04294 4.35591
1 3.84543 2.6414 11.3253
1 1.8455 7.16673 4.77546
1 7.89638 12.0397 11.9435
1 10.178 10.228 3.36675
1 2.63556 9.52751 10.1686
1 1.59568 1.82263 3.21309
1 9.90462 2.55903 9.88045
1 2.78267 9.98768 2.99499
1 9.96259 10.4006 10.27
1 10.9758 2.26046 3.1706
1 1.01849 4.37149 11.2188
1 12.2515 0.872794 0.640892
1 10.9016 0.0445514 8.60354
1 12.4831 10.5693 1.19338
1 1.26264 11.9538 8.44812
1 0.348116 10.2305 11.6666
1 1.45548 12.1117 5.1478
1 12.5515 1.16567 10.8581
1 10.862 12.0972 5.53427
96
 Atoms. Timestep: 4000
2 12.5101 8.42195 5.41427
2 4.77584 -0.00109914 11.9147
2 0.519102 4.42271 4.47792
2 7.44679 -0.131002 11.0275
2 0.562204 3.12779 10.6202
2 7.66523 -0.0504795 1.63297
2 0.0862576 7.54291 8.48538
2 4.84214 12.7382 1.70924
2 11.4441 6.60925 6.94377
2 3.99769 11.23 0.0264197
2 2.66681 4.11859 5.43774
2 7.87029 1.67768 -0.176763
2 1.83402 8.54035 6.91561
2 7.66575 11.0957 13.4441
2 0.101434 4.83138 8.586
2 5.4046 1.30745 13.353
2 11.5225 6.19251 4.11918
2 5.80663 11.3504 11.8376
2 1.79796 6.93601 4.6547
2 6.3883 2.24373 11.2974
2 2.34705 6.67758 8.30469
2 5.80068 1.48629 1.88223
2 11.4765 5.42512 9.3594
2 6.46614 10.7328 1.72935
2 11.0321 8.57817 9.8152
2 3.68304 10.2454 2.54794
2 2.32637 3.92782 9.15543
2 8.89243 2.67757 1.98221
2 1.93995 9.26889 9.84016
2 8.76844 10.1084 2.04687
2 11.1614 3.02369 9.36812
2 3.55965 1.9864 1.0938
2 2.72476 4.03478 3.06615
2 9.07582 1.81947 10.1537
2 10.0603 8.27478 4.41128
2 2.96945 11.2851 10.952
2 11.3851 3.92128 2.80477
2 3.38536 1.87439 11.2547
2 2.21828 9.3051 4.24926
2 8.33052 10.7802 10.4522
2 0.00994097 10.5112 0.458184
2 1.71019 0.574066 6.45505
2 -0.11589 1.77672 12.9086
2 10.8001 11.8316 6.37086
2 12.6043 -0.140772 1.16557
2 0.177625 12.1876 7.58918
2 11.8138 12.7966 12.6093
2 12.7174 12.6614 4.54332
2 10.8662 1.87949 1.86251
2 10.1688 11.4251 8.87227
2 0.54369 11.0023 3.23617
2 1.07546 1.1686 11.0524
2 0.810301 2.69606 1.1745
2 1.90031 12.3052 9.34006
2 11.0971 10.3137 2.35284
2 10.8812 0.42276 8.45118
2 -0.109482 10.5681 11.04
2 1.76369 1.69123 3.77783
2 11.9182 0.553436 10.4922
2 10.3672 10.7466 4.14541
2 10.5073 10.7323 11.267
2 9.13063 3.13135 4.16084
2 2.09279 1.39125 8.9622
2 2.23015 12.4014 3.66115
1 11.5857 7.09402 8.60814
1 4.74871 11.0917 1.47839
1 1.71084 5.09458 8.43769
1 7.54768 1.65795 1.53027
1 1.70316 8.26012 8.55366
1 7.82634 11.4136 1.41669
1 12.1469 4.15871 9.80556
1 4.78182 0.94594 1.10499
1 1.94231 5.17588 4.57464
1 7.84584 1.8245 11.7557
1 10.9994 7.54288 5.489
1 4.34048 11.5666 12.2098
1 12.2953 4.80338 3.96983
1 4.96903 1.37991 11.3526
1 1.16757 8.25537 5.39595
1 7.46848 11.5186 11.562
1 9.96689 9.42329 3.08004
1 1.67157 10.8329 10.3292
1 2.4965 2.71854 2.11885
1 10.7177 1.43352 9.71597
1 2.29701 10.7823 3.44556
1 9.618 10.0704 9.88331
1 10.1375 2.93228 2.92057
1 1.96094 2.37531 10.306
1 12.5174 1.62632 1.23306
1 11.4234 12.1645 7.88987
1 12.6515 11.1368 1.88702
1 1.24221 0.308689 8.15375
1 12.0371 11.1679 12.5422
1 1.31425 0.360757 4.74081
1 -0.208445 0.625016 11.7642
1 11.1486 12.03 4.8496
96
 Atoms. Timestep: 6000
2 0.043881 8.30709 5.62451
2 4.92256 -0.0598382 11.8994
2 12.1882 4.56425 4.59156
2 7.57807 0.42355 11.2468
2 12.7672 3.9329 10.8547
2 8.11242 12.9577 1.60016
2 12.016 8.32962 10.2528
2 4.57276 12.9208 1.32057
2 11.1753 8.51597 6.99174
2 4.69404 11.0649 13.1108
2 0.437915 3.20857 2.58483
2 7.65046 2.28709 0.429973
2 2.06611 7.41067 6.18034
2 7.50725 10.77 12.9172
2 0.673657 4.56422 8.64108
2 4.00291 1.70751 13.089
2 11.4027 6.96732 4.89029
2 6.10878 10.9144 11.2161
2 1.11622 5.93323 3.83511
2 6.19875 1.96609 11.7673
2 3.32901 5.76177 8.49281
2 5.94067 2.02553 2.02454
2 11.6717 6.26428 8.6589
2 6.69716 10.5312 1.37032
2 9.56015 8.86447 9.27297
2 3.907 10.2494 2.39999
2 2.34425 3.00502 9.00188
2 8.6495 2.62257 2.53812
2 3.26451 8.88234 8.39876
2 9.52116 10.3629 1.64923
2 10.7064 3.92327 9.75673
2 3.4371 1.90933 2.42362
2 1.98442 3.08941 3.8203
2 9.04292 2.69809 11.5918
2 10.0933 9.10521 4.10565
2 3.64767 10.5139 10.5933
2 10.3896 4.81159 3.66055
2 3.38493 1.59598 10.2172
2 1.46355 8.49873 3.60747
2 8.45242 10.9328 10.5259
2 12.3719 10.4785 0.438406
2 0.7091 12.2253 6.6977
2 12.8782 2.4969 -0.171655
2 10.6584 0.983978 6.55366
2 12.3133 0.493375 1.52442
2 12.1811 -0.0267728 8.16842
2 0.55801 10.5372 11.7728
2 12.173 12.4631 5.11033
2 11.3039 2.97217 2.21361
2 10.3793 11.8716 9.28315
2 1.79298 11.0309 2.04561
2 1.95936 0.303222 11.0202
2 1.26604 1.24496 2.27053
2 1.57429 11.0006 9.75702
2 12.0717 10.9818 2.70839
2 10.7849 1.654 9.50796
2 2.70611 11.6197 8.03356
2 1.89091 0.656917 4.65456
2 12.1451 2.9504 11.9608
2 10.1448 11.9787 4.53635
2 10.8119 10.7728 11.4785
2 10.2454 1.95932 3.94776
2 1.46588 0.749728 8.567
2 1.50509 10.9338 4.39097
1 10.8881 7.82033 8.7566
1 5.31379 11.1481 1.56759
1 2.32308 4.6007 8.61145
1 7.38736 1.50326 1.77771
1 2.892 7.28956 7.72742
1 8.05981 11.1835 1.05701
1 12.0371 4.8052 9.32785
1 4.3917 1.71111 1.13625
1 0.65957 4.37171 3.71029
1 7.79917 1.73616 12.3151
1 11.3249 8.51908 5.42395
1 4.56923 11.3973 11.3654
1 10.9738 5.49056 5.12915
1 4.71308 1.49311 11.4183
1 1.22318 7.28299 4.72321
1 7.46146 11.4436 11.4766
1 10.3807 10.4793 3.08614
1 2.9506 10.3669 9.2685
1 2.20233 1.79142 3.39456
1 10.5901 2.60287 10.9462
1 2.28163 9.77646 3.10776
1 9.9818 10.5762 10.1563
1 10.075 3.33811 3.16068
1 1.7964 1.52177 9.80872
1 12.6277 2.0479 1.44494
1 10.582 0.358672 8.07373
1 0.241309 11.9348 1.41267
1 0.879948 11.9759 8.32123
1 12.0623 10.0576 12.4061
1 0.872542 12.2441 5.01784
1 1.34124 11.8234 11.2042
1 10.5977 0.630767 4.92538
96
 Atoms. Timestep: 8000
2 0.151576 8.79925 4.70516
2 2.18756 12.1258 11.8632
2 12.1462 4.92573 3.57274
2 8.60371 9.77087 10.095
2 2.02806 9.71695 7.94395
2 8.37438 11.9252 0.807184
2 1.23864 8.42594 8.62969
2 5.10789 0.318189 1.83489
2 11.4578 8.61736 6.71571
2 3.7938 10.5182 0.439215
2 0.757604 3.90248 1.80054
2 8.238 2.39852 12.7672
2 1.86699 5.87434 5.69759
2 7.35981 9.93524 12.0337
2 5.38879 4.73987 8.74741
2 4.93631 2.86055 0.813726
2 10.0125 7.0972 4.76667
2 5.35818 10.8683 11.1854
2 2.06322 6.3133 3.29698
2 6.47598 3.66088 11.786
2 2.54814 4.20412 6.78498
2 7.016 1.43535 2.26528
2 12.2109 6.43663 8.07676
2 6.24854 10.4957 1.17511
2 10.5877 8.56861 9.02409
2 4.41327 10.1183 2.74782
2 2.63335 4.12874 9.38984
2 9.16496 1.7565 1.97463
2 12.1378 4.3029 6.74081
2 8.85363 9.85658 1.64823
2 11.2053 3.93648 8.7548
2 4.41977 2.22495 3.17202
2 2.05051 3.65827 4.51242
2 9.35962 3.58718 10.4924
2 10.4948 9.74805 4.31475
2 1.76425 9.68856 11.246
2 9.5919 4.31083 3.56324
2 3.83525 4.20469 11.8533
2 2.31117 8.92531 4.78009
2 7.2564 9.98468 8.52003
2 11.159 1.26938 0.200251
2 2.75528 12.5475 7.201
2 12.2714 3.03637 -0.547072
2 10.4124 12.3344 6.90071
2 12.1814 0.784987 1.94517
2 0.156752 0.651431 6.37651
2 12.093 12.3173 10.9758
2 1.11428 0.213197 4.17237
2 11.5511 2.9716 2.68713
2 10.9729 11.7093 9.15268
2 4.36851 9.16288 5.40262
2 2.07111 1.76304 11.1995
2 1.51933 1.65386 2.73438
2 1.95658 11.5893 9.59926
2 11.4283 10.9251 3.01423
2 11.6619 1.94597 8.39562
2 11.0817 9.76572 10.7816
2 2.98185 1.20866 5.10904
2 11.3639 3.40498 11.4196
2 9.75837 11.7345 3.73305
2 9.035 0.359996 11.6915
2 9.43553 1.82489 4.7781
2 3.78123 10.4745 10.046
2 3.02523 11.2197 5.69615
1 11.9504 7.84011 8.25882
1 4.67825 11.0632 1.46142
1 3.90948 4.48059 7.86601
1 8.09424 1.3964 1.0186
1 1.26157 4.34165 5.83367
1 7.73484 10.4876 0.547433
1 11.3135 5.15798 7.7794
1 5.55726 2.13496 2.10609
1 1.48845 4.73754 3.18586
1 8.19242 3.76827 11.8107
1 10.9144 8.36627 5.22075
1 3.4372 10.7456 11.7697
1 10.5225 5.66941 4.16955
1 5.2252 3.98607 12.5044
1 1.56841 7.4905 4.49162
1 6.94037 10.2348 10.5378
1 9.8978 10.3403 2.92153
1 0.417448 9.04497 10.8922
1 2.98992 2.2071 3.8625
1 10.8693 2.74031 9.91509
1 3.45583 10.0435 4.52302
1 9.98783 10.0322 9.64601
1 9.67458 2.81732 3.1755
1 2.54235 3.3026 10.75
1 12.386 2.32646 1.3427
1 11.7259 0.468908 7.68642
1 0.296377 11.9499 2.96713
1 3.33791 11.2875 8.32894
1 10.6612 0.878303 11.7337
1 1.57382 12.4381 5.76551
1 1.33445 0.346476 10.6595
1 9.58281 0.3847 5.44641
96
 Atoms. Timestep: 10000
2 0.683807 7.45147 6.05152
2 2.68403 11.612 0.512797
2 11.1309 4.5281 5.82087
2 8.44718 10.2296 11.063
2 1.58946 10.7974 7.60223
2 7.65269 11.8008 1.05277
2 11.9641 9.20045 8.88614
2 7.03156 9.09793 2.30668
2 10.8609 9.17781 6.83501
2 3.51299 8.9124 0.488032
2 3.41945 2.82162 4.13792
2 7.44911 1.16543 11.7675
2 1.74039 5.62751 6.97475
2 6.36187 11.0918 12.3012
2 3.78141 2.84851 9.24705
2 4.53285 3.43054 12.015
2 10.4505 7.29858 4.57862
2 5.51642 9.60922 10.7267
2 3.17348 5.97134 5.12095
2 6.20657 2.95015 10.202
2 1.21234 2.83274 7.54351
2 6.44175 2.25647 0.779695
2 12.3621 6.85947 9.88035
2 4.75102 11.0742 1.3882
2 10.9345 11.1336 9.09626
2 3.00153 10.0338 2.85575
2 1.21203 5.07156 10.1591
2 9.02916 2.25799 1.03784
2 11.8728 5.24683 7.94993
2 11.6986 9.3249 1.9548
2 10.5022 4.34602 9.35051
2 4.55976 2.28992 1.76893
2 1.35671 4.03978 5.36837
2 8.33286 2.80293 9.62808
2 12.1842 9.19938 4.84043
2 1.95916 8.95583 10.9546
2 10.1308 4.13703 3.62747
2 3.6366 5.08733 11.2275
2 2.61883 8.58033 5.49706
2 7.5139 11.6461 9.81204
2 11.6166 2.86763 12.3824
2 3.07918 0.659198 7.38969
2 1.75725 4.64332 12.7736
2 8.9516 0.27789 5.39702
2 11.3439 1.39983 3.15745
2 11.0657 1.7251 5.13553
2 1.40111 1.37156 11.4046
2 1.9701 1.55018 5.17041
2 11.2575 3.67945 1.73821
2 11.1266 11.6677 6.92042
2 4.96429 9.36435 4.68293
2 4.03207 1.00637 12.2878
2 1.93482 2.99635 1.99465
2 2.44434 11.7057 10.2228
2 12.0154 11.5905 4.62268
2 9.41351 2.47257 7.24865
2 11.4286 9.40284 10.7928
2 3.51684 0.628965 3.68873
2 10.8932 2.31001 9.46306
2 9.92364 10.9698 3.49644
2 11.3499 12.009 11.0369
2 9.40933 1.3585 3.52752
2 3.47016 9.74923 9.68258
2 3.32461 10.7775 5.3832
1 11.9797 10.3099 7.59945
1 3.22743 10.0907 1.38239
1 2.46789 1.96476 8.52646
1 7.7327 1.37218 0.743649
1 0.654924 4.34684 6.81771
1 6.53474 10.3496 1.3569
1 11.8118 5.20893 9.68192
1 5.03555 2.38856 0.349283
1 3.15833 4.24447 4.76276
1 7.26843 1.55171 10.1379
1 11.1915 8.07341 5.83977
1 3.82553 9.2143 11.3762
1 10.5805 5.3702 4.39954
1 4.61939 3.7647 10.1955
1 2.15674 7.13417 5.93863
1 6.94579 10.6018 10.9118
1 11.5681 10.0428 3.67507
1 0.543383 8.39109 10.1468
1 3.23058 2.08991 2.78611
1 9.4938 3.33739 8.82975
1 3.37989 9.31905 4.19416
1 10.2902 10.7695 10.61
1 10.1177 2.67755 2.76387
1 2.22992 5.11984 11.2969
1 0.781216 3.47716 0.778213
1 9.94031 1.26785 6.33335
1 0.554209 1.11933 4.22127
1 2.96615 11.2044 8.87353
1 11.6462 1.76812 10.9549
1 3.34634 0.650478 5.64068
1 2.5383 0.342458 11.568
1 8.57179 12.0052 3.7885
96
 Atoms. Timestep: 12000
2 0.381941 8.07629 4.75882
2 2.58867 11.1594 0.308102
2 9.49161 5.35486 6.19475
2 8.80934 9.32281 11.5373
2 2.70046 0.662601 7.7727
2 7.26975 11.8018 3.18526
2 12.6019 8.08163 8.5579
2 5.1009 11.0474 3.80376
2 10.2681 8.86456 6.34743
2 4.04288 8.83639 0.791335
2 2.70652 4.16157 3.27941
2 7.66688 2.45391 12.2293
2 2.31353 6.38318 5.95474
2 6.71879 10.2391 0.946526
2 3.96874 3.05119 8.9811
2 6.49477 1.3984 10.2544
2 10.1932 6.78092 4.48517
2 5.89978 8.87471 12.0391
2 1.26826 6.3441 3.5403
2 4.85578 2.91171 11.3984
2 2.48852 5.10846 7.7173
2 5.75739 1.49706 0.036742
2 1.98643 6.50394 9.41625
2 4.65643 11.1463 1.75567
2 10.4134 9.31008 9.18773
2 3.01882 10.7632 3.08959
2 1.9343 4.24248 11.198
2 7.50478 3.31995 1.90418
2 12.0537 5.2016 8.77547
2 11.3848 11.0823 0.933572
2 11.5249 3.62035 10.3752
2 3.94798 2.01521 1.46297
2 12.1651 5.34016 5.17843
2 8.81525 2.17599 9.73758
2 11.08 9.32965 3.18027
2 3.28976 7.66467 10.6705
2 10.1671 4.01698 3.80603
2 2.7042 1.87255 11.7542
2 2.70075 8.91614 4.48454
2 7.71565 11.5791 11.2534
2 11.6153 1.69192 0.543605
2 3.80636 2.98894 6.31219
2 1.58722 3.6441 13.0605
2 9.2168 12.6324 5.5076
2 0.31415 3.42634 3.02836
2 11.0568 1.88034 4.8755
2 0.793828 12.0044 12.2318
2 1.63283 2.06702 4.79537
2 10.5069 3.44646 1.75571
2 12.0667 11.574 6.42993
2 3.73438 10.3583 6.75025
2 3.90394 12.2563 11.7829
2 4.18231 3.97313 0.558607
2 2.92833 11.7113 9.9041
2 12.4213 0.22672 3.07501
2 10.3878 1.98131 7.82265
2 11.9694 8.6842 10.738
2 4.24973 2.5894 3.96311
2 10.3392 1.23894 10.6743
2 9.9108 11.4693 2.86341
2 10.3191 11.1532 10.9668
2 8.47399 1.80214 3.72808
2 1.71234 9.78707 8.71405
2 3.68009 12.2174 5.43151
1 11.1599 8.65374 7.78414
1 3.15627 9.96512 1.32225
1 3.83214 3.89447 7.57569
1 6.48332 3.20132 0.210282
1 1.09521 5.3921 6.97907
1 6.41816 10.7049 2.33464
1 0.746884 4.87538 10.2138
1 4.61875 0.64283 0.803497
1 1.04885 4.77052 3.55228
1 8.03614 1.49943 11.0568
1 10.7949 8.54488 4.7634
1 4.24971 7.92574 11.9425
1 10.3864 5.29275 4.79949
1 5.06812 2.21733 9.76558
1 2.11255 7.41937 4.30521
1 7.39765 9.92632 11.7829
1 11.2965 10.8796 2.53961
1 1.40793 8.36354 9.85856
1 4.0128 3.26051 2.32981
1 10.4778 2.17245 9.42928
1 3.70735 10.2478 4.92482
1 10.4956 9.45673 10.9724
1 8.94562 3.24264 2.79881
1 3.06067 3.35765 11.8749
1 12.0958 3.12945 1.0933
1 11.0736 1.00705 6.23791
1 0.312293 1.96335 3.80802
1 2.68461 11.0106 8.14353
1 11.0484 0.254464 12.1853
1 3.3221 1.98975 5.15273
1 2.19911 11.9868 11.465
1 8.65617 0.029372 3.99887
96
 Atoms. Timestep: 14000
2 1.52063 7.91554 3.91407
2 4.49082 11.56 11.6723
2 11.5271 1.77998 6.39229
2 7.61416 9.50044 11.4623
2 5.23435 9.58931 8.14591
2 6.03747 11.0507 4.49925
2 0.761714 9.17728 8.11149
2 6.66271 8.92431 3.70442
2 10.7381 8.66642 5.50031
2 2.45522 10.1182 11.9765
2 4.26924 3.83107 5.07422
2 7.86758 5.16819 12.4595
2 2.48216 6.31873 5.4482
2 7.33507 8.59384 1.69609
2 6.31341 3.93269 7.3498
2 5.65414 5.93328 8.39463
2 9.49906 8.21483 3.14151
2 6.37618 11.477 12.43
2 2.37894 4.67902 3.93874
2 4.85148 3.70745 9.62095
2 3.7587 4.42529 7.06723
2 6.81411 2.72253 12.0414
2 1.01383 6.49838 9.29303
2 4.72676 9.4829 0.939353
2 8.62655 8.80915 9.78012
2 3.90626 9.90496 2.81075
2 1.21387 4.69307 10.5314
2 8.0381 3.55747 2.68309
2 0.883503 5.03097 7.55912
2 9.97077 1.42705 1.82223
2 10.0152 3.99329 9.28227
2 4.62778 1.91084 1.28155
2 11.6849 4.26207 5.86083
2 7.65881 3.97645 9.98457
2 8.79723 10.4092 2.57255
2 1.4153 7.91284 10.8728
2 9.80635 3.00295 5.60981
2 2.49056 2.1325 10.5508
2 3.97443 7.94002 3.24564
2 10.0658 6.34906 10.6361
2 11.3284 2.20201 11.7004
2 5.20518 1.54727 5.42836
2 3.17643 3.84318 2.33375
2 7.48102 0.984916 6.40867
2 1.61487 2.42059 4.6564
2 0.654987 11.0927 6.23775
2 3.8881 1.91694 7.78848
2 2.60219 0.514781 5.58676
2 10.447 4.08972 3.90487
2 5.605 10.9506 8.35043
2 5.28843 8.41443 5.82356
2 5.32364 1.64556 10.3359
2 1.9943 2.85003 0.967241
2 4.50922 6.5298 7.58866
2 11.2095 11.7931 4.5196
2 8.01781 1.11948 9.17028
2 10.7361 9.06296 12.2223
2 3.27957 1.26068 3.33088
2 8.91826 2.39043 11.5015
2 8.19478 0.926569 3.79795
2 9.56672 11.2645 11.2896
2 7.39773 2.83844 4.7004
2 3.30002 7.88159 8.78001
2 4.00302 10.6115 4.73126
1 11.5188 9.4676 6.59183
1 3.66142 10.5281 0.882149
1 4.51917 2.86335 6.65616
1 7.49569 3.83964 1.1722
1 2.50937 5.39789 6.83465
1 8.1723 8.89941 2.97381
1 11.349 5.10153 9.15052
1 5.69657 1.58231 11.889
1 3.87287 4.81272 3.88418
1 8.47663 5.36871 10.9767
1 11.0572 8.10057 3.85532
1 1.14958 8.95654 12.4489
1 10.7438 3.37669 6.89265
1 6.20761 4.50023 8.89745
1 2.96125 7.01538 4.10316
1 6.45783 9.79867 12.5004
1 9.81197 11.7875 3.2933
1 1.63471 8.2745 9.21392
1 2.9957 2.11189 1.89484
1 8.84416 2.6728 9.7406
1 4.93771 9.42072 4.13165
1 9.28992 9.67016 11.2463
1 9.00487 3.70693 4.2024
1 1.30548 2.95616 11.1609
1 1.12677 3.91721 4.35302
1 6.78609 0.766288 8.03997
1 1.05562 1.07466 5.20004
1 4.37674 8.19806 7.25756
1 10.0205 1.25261 11.946
1 3.97156 12.1251 4.73808
1 3.76423 2.21079 9.30852
1 6.98594 1.00376 4.87557
96
 Atoms. Timestep: 16000
2 11.8308 9.57737 4.99134
2 5.86244 10.4761 0.784075
2 9.37658 1.64124 7.78126
2 10.0442 8.34201 11.8769
2 7.81258 9.85111 8.14811
2 6.39368 10.4697 3.9016
2 1.92884 9.34228 8.28964
2 6.93481 8.34343 4.87975
2 9.62881 10.56 6.59718
2 3.77692 9.23757 12.2974
2 2.71674 10.3446 6.30197
2 7.4013 5.78266 8.47695
2 2.40993 7.50033 5.86367
2 8.55821 7.42492 2.86151
2 8.16937 5.49659 5.0198
2 6.30146 5.87231 6.7555
2 9.35627 8.55645 4.74792
2 7.10306 0.823059 11.4326
2 11.0953 4.19886 4.05937
2 5.26535 4.19465 8.33144
2 2.15262 5.76007 4.45435
2 5.84795 2.09807 2.38956
2 1.50107 7.19844 8.4989
2 6.99357 8.51627 1.35827
2 11.1477 10.4129 9.88572
2 4.90736 8.43872 2.85672
2 11.8731 4.79929 10.2879
2 5.96043 4.1724 4.38032
2 1.26476 5.45147 7.49442
2 8.8145 1.2691 1.0936
2 10.3396 4.35434 8.32109
2 3.58719 3.64416 1.65349
2 10.2298 3.22882 5.91991
2 5.40532 2.24955 9.66992
2 9.18614 9.9453 2.21367
2 3.17501 8.50697 9.75518
2 7.77822 3.50235 6.65383
2 2.90224 2.99557 9.70138
2 4.49238 9.12432 5.04383
2 9.77163 6.78311 9.1453
2 11.1348 2.66527 10.7806
2 5.14302 11.7624 6.01207
2 1.32877 3.79244 2.24094
2 7.81899 0.916496 6.39889
2 11.5254 1.43805 4.593
2 1.13586 11.7979 7.45437
2 3.86041 1.69812 7.63965
2 2.66727 1.03444 4.66272
2 8.71778 2.73623 4.08067
2 7.55936 11.6916 9.43557
2 6.67414 10.3305 6.47913
2 4.8833 11.4486 2.47535
2 2.24285 2.31554 11.5972
2 5.77461 7.48085 6.85399
2 9.88047 11.2953 3.80937
2 7.20714 3.45295 9.17421
2 1.54145 9.93217 11.1829
2 2.43568 1.1633 2.33306
2 8.20798 2.65432 10.9301
2 7.91739 0.935086 3.89672
2 10.1774 11.1027 11.7957
2 6.78005 2.10155 5.17408
2 4.44971 8.89278 8.03478
2 2.9653 9.81204 3.66116
1 1.11728 10.6496 8.63299
1 5.28403 8.72656 1.16303
1 4.29167 10.9409 7.02516
1 5.00618 3.51441 2.65778
1 2.07043 6.11382 6.10653
1 8.27971 7.28283 4.58423
1 11.1286 5.72768 8.84458
1 6.5363 12.0978 1.31423
1 1.40275 5.02992 3.48261
1 8.16932 7.12356 9.457
1 10.0428 9.90772 4.75316
1 2.99233 9.502 10.9114
1 9.33047 3.34835 7.09863
1 6.79232 4.60038 7.87545
1 2.50368 8.99437 5.06215
1 8.85884 8.35508 1.44198
1 8.70688 11.5049 2.47089
1 2.92697 8.02291 8.11913
1 2.13404 2.54012 1.71318
1 7.06987 2.05658 10.0815
1 5.94789 9.0251 4.1323
1 10.9385 9.66768 11.2607
1 7.67249 3.94729 4.97986
1 1.78458 3.40158 10.6755
1 10.5411 2.67851 4.36958
1 8.76231 11.2853 7.9363
1 1.35238 0.6907 5.80783
1 6.08962 9.1265 7.54126
1 9.82023 1.81401 11.5368
1 3.40515 11.3415 3.13393
1 4.32447 2.80528 8.89475
1 6.58044 11.6253 4.99784
96
 Atoms. Timestep: 18000
2 2.75626 10.2733 5.14806
2 7.11371 11.0318 1.55201
2 9.78484 1.17683 6.84849
2 9.69407 8.98926 10.6756
2 3.66496 9.4929 9.79399
2 6.91239 10.2234 4.59318
2 1.90544 8.73318 7.92249
2 7.0398 7.58908 4.1196
2 8.8585 10.8353 6.96325
2 4.45171 9.06223 12.366
2 2.86682 0.751328 6.78356
2 7.98024 6.28626 10.1951
2 1.4476 7.82751 4.25591
2 8.99981 7.15623 2.53585
2 8.69801 5.77964 4.97732
2 7.9813 8.9364 9.43658
2 9.57289 8.47093 4.97122
2 7.34921 1.05427 11.3161
2 10.8222 2.91032 4.2614
2 5.29878 4.32457 9.3492
2 11.9833 5.32827 4.34854
2 6.37328 1.57606 1.22675
2 1.60403 5.76108 8.33442
2 7.61555 8.66283 13.1614
2 11.3424 9.79077 8.87164
2 5.41105 9.83416 2.48642
2 11.8003 4.31392 9.04404
2 6.79018 3.68384 5.91641
2 11.4092 6.71499 6.33989
2 10.8399 11.8716 2.07578
2 9.94009 4.90338 7.5272
2 3.50566 3.23132 1.53199
2 9.31856 3.26355 5.96377
2 5.48966 2.18044 10.0345
2 9.24384 10.0799 2.20996
2 2.66644 7.53652 10.1706
2 7.59999 5.33744 7.98206
2 2.65528 2.87244 9.58227
2 4.47724 8.07515 3.50789
2 10.4283 6.93744 8.99146
2 11.812 2.06519 10.9498
2 5.42176 0.99383 5.49332
2 1.28232 3.99822 2.53533
2 7.47542 1.15926 5.91437
2 0.653918 1.45743 5.30865
2 1.15037 10.2685 6.32172
2 4.5939 2.05656 7.90075
2 1.95047 0.594091 3.96455
2 9.73413 1.0237 3.94088
2 7.84309 2.12561 8.24532
2 4.38559 10.8205 8.01126
2 3.41059 1.2226 2.14026
2 1.12213 3.84424 12.0013
2 6.61807 9.76371 9.04263
2 10.4891 10.2337 4.56571
2 7.83753 3.62409 10.3082
2 1.39957 9.63941 10.6769
2 1.30157 1.618 1.54607
2 9.68416 1.48444 12.6973
2 8.04083 11.5389 3.57351
2 11.4256 11.4071 11.4563
2 5.28789 1.94911 3.74193
2 4.33551 7.75566 8.2695
2 2.54205 10.145 2.55998
1 0.606811 9.41349 7.45966
1 6.21771 9.72739 1.14114
1 4.40404 0.705385 6.92122
1 4.93541 1.70727 2.00502
1 11.9061 6.84659 4.85944
1 8.66101 7.23926 4.37791
1 11.2739 5.6903 7.79356
1 8.02037 1.13915 0.887029
1 11.5222 3.97646 3.6578
1 9.36247 7.42088 10.0066
1 10.0587 9.507 6.17397
1 3.08685 8.74981 11.1361
1 8.61455 4.7319 6.54382
1 7.04283 4.93807 9.61154
1 2.84759 8.6126 3.91001
1 8.96573 8.38709 1.54589
1 9.77886 11.1537 3.34617
1 2.60658 7.15445 8.60415
1 1.90177 3.29326 1.21083
1 7.05547 2.04588 10.1122
1 5.91182 8.70836 3.59721
1 11.0472 9.97169 10.5339
1 5.91989 3.34958 4.52171
1 1.15552 3.44157 10.2006
1 10.5585 1.71609 5.47928
1 8.39125 1.11003 7.195
1 1.87413 11.7855 5.60413
1 5.00794 9.38391 8.65478
1 11.3354 1.10188 12.7085
1 2.44094 11.5509 2.41684
1 4.22652 2.91057 9.41045
1 6.69791 0.294294 4.75057
96
 Atoms. Timestep: 20000
2 11.1518 11.2048 6.20626
2 6.69325 10.6067 12.124
2 8.98367 11.9956 8.47696
2 9.54158 9.47414 1.14594
2 2.10666 10.2024 11.4342
2 6.80504 10.7769 3.36944
2 1.52382 8.91398 9.28026
2 7.49935 8.06161 4.42295
2 8.84156 10.307 7.20531
2 4.1376 9.61009 12.875
2 1.85606 10.3757 7.59415
2 6.76916 4.79577 6.99094
2 2.24471 7.88307 5.06571
2 9.83876 7.58772 3.02463
2 9.47961 5.55924 4.24763
2 8.43335 7.48956 7.25929
2 10.0771 7.60048 5.58108
2 7.75543 2.09524 11.0254
2 0.644098 3.9236 4.30638
2 4.35183 2.4757 6.81648
2 0.704708 6.81054 3.97573
2 5.73673 1.26487 12.2584
2 11.6651 6.37764 9.85561
2 11.1823 8.20287 1.31317
2 11.3981 10.7826 10.9543
2 6.04205 8.6361 1.47714
2 11.6792 4.36543 8.26144
2 7.83711 3.75345 3.36842
2 11.4646 6.28916 6.94464
2 1.02294 1.16816 2.18314
2 8.46063 5.51976 5.97484
2 3.39994 3.37384 12.1557
2 10.037 2.92168 5.2948
2 5.01727 2.64352 9.33126
2 10.7912 9.71663 3.77929
2 2.28381 8.19655 11.4832
2 7.3602 3.36338 5.28733
2 2.39249 2.42993 8.67711
2 4.93443 9.61161 4.52737
2 9.22608 5.72716 8.80313
2 11.5006 2.47381 10.1567
2 7.27796 1.73261 3.01515
2 1.5549 5.17222 1.55128
2 7.44283 0.776535 6.08564
2 0.680612 2.2692 6.75178
2 0.94371 11.6694 9.11303
2 4.10838 11.9833 7.65698
2 3.12805 1.80247 3.81348
2 11.2075 0.985148 4.3307
2 6.57775 0.613709 8.65189
2 4.67005 9.0266 8.542
2 3.79704 1.71261 1.62198
2 1.51398 4.36172 10.9882
2 6.50827 6.83157 8.56361
2 9.05854 9.87589 5.23748
2 6.91653 3.05646 8.04547
2 0.941113 9.80974 1.35489
2 0.434527 3.3294 12.7339
2 9.53057 3.00051 1.80287
2 9.038 12.4574 4.70752
2 10.3874 0.680628 1.55621
2 6.73438 3.25778 0.945077
2 3.31579 7.50054 9.24047
2 2.60145 11.0368 4.17359
1 1.24024 10.3461 10.001
1 5.48444 9.42088 12.1417
1 3.61301 10.3019 7.95404
1 4.88853 2.77026 0.760428
1 12.0923 7.12547 5.65101
1 9.04663 7.28296 4.37313
1 10.8167 5.77351 8.4987
1 7.11544 0.695474 12.0303
1 0.805397 5.31634 3.36422
1 7.72501 5.954 7.68147
1 9.27794 8.69265 6.79188
1 2.7542 9.25896 0.692765
1 8.74756 4.06452 4.90697
1 5.81124 3.31125 6.59447
1 3.32189 9.47861 4.62166
1 11.5593 8.07391 2.85739
1 10.3911 11.0604 4.92484
1 1.77619 7.45621 10.0029
1 2.1157 3.98746 12.399
1 6.99429 2.39943 9.62164
1 6.18416 9.24333 3.40169
1 10.905 10.6048 0.837878
1 7.90604 3.00641 2.09066
1 1.35097 3.38822 9.26825
1 11.5696 2.59099 5.13815
1 7.88938 11.5234 7.64441
1 12.4219 11.9136 7.42532
1 4.87025 7.24669 8.59702
1 11.1139 2.20818 1.67439
1 2.76618 0.693058 2.59084
1 3.85794 1.82786 8.46247
1 7.3152 0.985632 4.42563
96
 Atoms. Timestep: 22000
2 11.4678 11.8835 9.25297
2 5.34253 9.9261 10.439
2 7.4321 10.0177 5.84899
2 7.94826 11.3109 0.717694
2 11.9942 9.83172 11.5753
2 6.79966 8.85561 2.022
2 1.07835 9.39431 8.60163
2 6.20105 6.14777 2.49236
2 9.12491 9.36546 7.99012
2 1.25551 10.2308 2.16527
2 1.82975 1.16346 7.97048
2 8.71505 5.71841 8.66282
2 2.69303 7.93348 5.16573
2 8.79463 7.24651 2.82194
2 8.2694 6.07166 4.43194
2 10.3879 7.80215 8.56791
2 0.782364 8.69532 6.72512
2 7.39637 0.334829 10.1903
2 11.6661 3.02278 5.17228
2 6.05554 4.46962 8.56026
2 11.1348 7.31173 4.92296
2 4.24365 1.02243 11.6502
2 2.43496 6.74645 8.95362
2 11.3245 8.5792 2.45373
2 9.99551 10.9575 10.6277
2 5.03624 8.81622 1.0775
2 3.28495 4.87292 8.80556
2 8.4727 4.15573 1.93273
2 1.73586 6.0928 6.10292
2 0.93121 1.65743 2.68717
2 10.1797 5.19204 6.7947
2 4.28132 2.89342 2.156
2 8.97129 3.50651 4.47546
2 6.28764 2.31203 9.13597
2 9.50875 9.36213 3.70676
2 3.4817 8.73038 10.4082
2 8.04306 4.66809 6.2867
2 4.04389 2.98921 9.98975
2 4.17475 8.10919 3.4326
2 11.6544 5.05749 8.49046
2 1.56891 2.14493 10.3154
2 7.71086 1.31655 2.78353
2 2.78674 3.93521 3.80051
2 5.53188 11.3117 1.3949
2 11.0355 2.04401 7.32169
2 9.92998 1.97393 9.33428
2 3.66991 2.7021 7.81461
2 1.1405 1.03381 6.13853
2 9.67897 0.627394 5.85972
2 7.42603 12.0443 7.91357
2 4.29944 11.2831 6.64347
2 3.28726 0.942305 1.55783
2 2.71618 2.60999 12.2783
2 5.8493 9.90932 7.53646
2 9.94631 9.83803 5.98629
2 8.1366 3.3568 8.51822
2 10.0469 10.0882 0.742917
2 1.09125 3.40127 1.26659
2 9.43506 2.36178 1.83531
2 7.53595 10.2753 3.71298
2 11.0706 1.07986 0.833652
2 6.27124 2.52898 1.56171
2 3.21134 8.75368 7.36595
2 2.51499 10.5629 3.91815
1 11.503 10.3762 10.1309
1 4.84277 8.68194 11.1434
1 3.37018 1.17653 7.17668
1 4.72393 1.50351 1.27868
1 1.12564 7.6255 5.83743
1 7.97253 5.78556 2.78183
1 1.91404 5.3918 7.83511
1 5.86669 11.4662 10.8179
1 1.72911 3.69834 5.0462
1 10.3226 6.11783 8.49668
1 10.8193 9.2925 7.39862
1 11.6984 9.43874 1.25948
1 9.35233 4.94545 5.45719
1 7.62939 4.6698 7.91868
1 3.55672 9.34047 4.38581
1 10.3437 7.87431 3.50389
1 8.92197 10.7331 4.86856
1 2.7222 8.26281 9.03144
1 2.95479 3.65011 1.88856
1 8.11756 1.73015 9.06623
1 5.39532 7.7051 2.41175
1 9.58573 11.7132 12.1709
1 7.81683 2.68584 1.95402
1 3.11886 1.99801 10.8566
1 10.992 1.78838 5.68691
1 7.47841 10.1608 7.65997
1 11.615 2.22026 8.82131
1 4.48878 9.62838 6.74345
1 11.1682 2.4456 1.81391
1 1.98496 11.6854 2.84809
1 4.81543 3.43357 8.67536
1 6.96717 10.7669 2.27281
96
 Atoms. Timestep: 24000
2 11.5107 11.6168 9.16624
2 4.34579 11.1419 11.6008
2 8.00256 10.7954 6.12227