96
 Atoms. Timestep: 0
2 0 7.95642 4.74695
2 4.63304 0 11.358
2 0 4.63304 4.74695
2 7.95642 0 11.358
2 0 4.63304 8.47514
2 7.95642 0 1.8641
2 0 7.95642 8.47514
2 4.63304 0 1.8641
2 10.7421 8.43088 6.61105
2 4.15858 10.7421 0
2 1.84736 4.15858 6.61105
2 8.43088 1.84736 0
2 1.84736 8.43088 6.61105
2 8.43088 10.7421 0
2 10.7421 4.15858 6.61105
2 4.15858 1.84736 0
2 10.5201 6.29473 5.04003
2 6.29473 10.5201 11.6511
2 2.06934 6.29473 5.04003
2 6.29473 2.06934 11.6511
2 2.06934 6.29473 8.18207
2 6.29473 2.06934 1.57102
2 10.5201 6.29473 8.18207
2 6.29473 10.5201 1.57102
2 10.1594 8.65935 9.20274
2 3.93011 10.1594 2.59169
2 2.43004 3.93011 9.20274
2 8.65935 2.43004 2.59169
2 2.43004 8.65935 9.20274
2 8.65935 10.1594 2.59169
2 10.1594 3.93011 9.20274
2 3.93011 2.43004 2.59169
2 2.43004 3.93011 4.01936
2 8.65935 2.43004 10.6304
2 10.1594 8.65935 4.01936
2 3.93011 10.1594 10.6304
2 10.1594 3.93011 4.01936
2 3.93011 2.43004 10.6304
2 2.43004 8.65935 4.01936
2 8.65935 10.1594 10.6304
2 0 10.703 0
2 1.88643 0 6.61105
2 0 1.88643 0
2 10.703 0 6.61105
2 0 0 1.872
2 0 0 8.48305
2 0 0 11.3501
2 0 0 4.73905
2 11.2706 2.31295 2.18973
2 10.2765 11.2706 8.80078
2 1.31887 10.2765 2.18973
2 2.31295 1.31887 8.80078
2 1.31887 2.31295 2.18973
2 2.31295 11.2706 8.80078
2 11.2706 10.2765 2.18973
2 10.2765 1.31887 8.80078
2 1.31887 10.2765 11.0324
2 2.31295 1.31887 4.42131
2 11.2706 2.31295 11.0324
2 10.2765 11.2706 4.42131
2 11.2706 10.2765 11.0324
2 10.2765 1.31887 4.42131
2 1.31887 2.31295 11.0324
2 2.31295 11.2706 4.42131
1 11.0086 7.83654 8.10972
1 4.75292 11.0086 1.49867
1 1.5809 4.75292 8.10972
1 7.83654 1.5809 1.49867
1 1.5809 7.83654 8.10972
1 7.83654 11.0086 1.49867
1 11.0086 4.75292 8.10972
1 4.75292 1.5809 1.49867
1 1.5809 4.75292 5.11238
1 7.83654 1.5809 11.7234
1 11.0086 7.83654 5.11238
1 4.75292 11.0086 11.7234
1 11.0086 4.75292 5.11238
1 4.75292 1.5809 11.7234
1 1.5809 7.83654 5.11238
1 7.83654 11.0086 11.7234
1 10.1088 10.1088 3.30552
1 2.48067 10.1088 9.91657
1 2.48067 2.48067 3.30552
1 10.1088 2.48067 9.91657
1 2.48067 10.1088 3.30552
1 10.1088 10.1088 9.91657
1 10.1088 2.48067 3.30552
1 2.48067 2.48067 9.91657
1 0 1.60471 1.57853
1 10.9848 0 8.18958
1 0 10.9848 1.57853
1 1.60471 0 8.18958
1 0 10.9848 11.6436
1 1.60471 0 5.03252
1 0 1.60471 11.6436
1 10.9848 0 5.03252
96
 Atoms. Timestep: 2000
2 0.0401834 8.46952 4.09453
2 4.62946 11.855 10.8663
2 12.5887 4.77188 5.36759
2 7.94038 12.5845 12.4854
2 0.614758 4.83608 8.81183
2 7.88903 -0.0766922 1.87315
2 0.452083 8.98 7.79109
2 3.54644 -0.0840464 2.47755
2 11.8801 7.7533 6.74755
2 4.56327 9.96487 -0.119691
2 1.81231 5.00968 6.37879
2 7.72196 1.70382 0.155317
2 2.27365 8.11262 5.56817
2 8.5301 10.7137 -0.147477
2 10.8607 4.82194 7.20378
2 4.0209 -0.0311731 -0.123766
2 10.7077 6.37374 4.55605
2 6.06565 10.5924 11.9512
2 0.812884 6.56207 4.00692
2 5.9769 0.534812 12.0178
2 1.3762 6.95977 7.81103
2 5.99859 1.75039 1.39129
2 12.2365 7.14404 8.66981
2 6.44417 10.7234 1.20066
2 10.2899 9.11115 8.73728
2 3.57663 10.4487 1.93121
2 2.58616 3.68935 9.12844
2 8.65052 1.9975 3.29119
2 2.36787 9.20371 8.44822
2 9.22384 10.4275 2.70288
2 10.989 3.77954 9.49042
2 3.78914 2.30731 2.41237
2 2.06445 4.3143 3.73515
2 8.72271 2.03775 11.0332
2 10.74 9.10142 4.97643
2 3.57367 9.45396 10.8462
2 9.66758 3.83236 4.76301
2 3.9134 1.48301 10.2835
2 2.45254 9.86817 3.56599
2 8.56904 10.0761 10.6732
2 12.3671 10.3604 -0.0151976
2 1.23225 12.372 6.5838
2 12.4522 2.36095 12.9795
2 10.9331 -0.0168898 6.86988
2 12.4057 -0.0862524 1.27384
2 -0.194126 12.206 8.12103
2 0.425091 -0.097269 11.4483
2 -0.268576 0.27413 4.72369
2 12.1549 3.33219 1.75291
2 10.2836 11.4287 9.46984
2 0.735813 11.0403 2.53975
2 2.41954 0.602105 8.34445
2 0.950248 2.25642 1.94137
2 2.66419 11.2831 9.24261
2 11.2059 9.80838 2.64615
2 10.2956 0.703041 9.03877
2 0.597509 10.6721 10.7121
2 1.89394 1.26839 4.20282
2 12.227 2.07478 10.322
2 10.2182 11.6863 4.66313
2 10.9434 10.9108 11.3419
2 9.43956 0.818685 5.04071
2 2.02251 1.91905 10.9465
2 1.93744 11.8317 4.41187
1 11.7534 8.61311 8.08399
1 5.2619 9.4892 1.26228
1 2.22559 5.14565 8.04692
1 7.66066 1.72247 1.77145
1 1.80616 8.25568 7.18272
1 8.48075 11.195 1.66882
1 11.6285 5.17 8.74955
1 4.47371 1.0523 1.57112
1 0.958428 5.01717 4.65195
1 7.73092 1.38316 12.0759
1 11.8389 7.82433 5.11392
1 4.53085 10.2597 11.7043
1 10.8048 4.77127 5.33779
1 4.43075 0.41177 11.835
1 1.51006 8.29331 4.03618
1 7.60158 10.7904 11.8091
1 10.2424 10.1527 3.88664
1 2.11204 10.0163 9.9809
1 2.33227 2.53678 3.11803
1 10.4627 2.17456 10.2063
1 2.64885 11.428 2.92303
1 10.1664 10.1547 10.0463
1 8.64459 2.41947 4.73791
1 2.55892 2.01876 9.35052
1 12.3613 1.80363 1.01199
1 11.14 12.335 8.57838
1 12.3376 11.0945 1.45694
1 1.48612 12.2744 8.04258
1 12.4046 11.5618 11.6651
1 1.29562 0.233522 5.07732
1 0.43971 1.662 11.4336
1 11.2646 0.0543115 5.33836
96
 Atoms. Timestep: 4000
2 12.5447 8.78046 7.63195
2 4.25196 12.649 11.943
2 12.4045 5.11008 4.24282
2 7.98456 0.0374097 11.4729
2 -0.238427 4.04183 7.94714
2 7.63838 12.201 1.63807
2 0.268651 7.00179 9.52358
2 2.81436 12.2161 2.29882
2 10.4548 9.33561 5.79382
2 4.21307 10.0015 13.1686
2 1.43852 4.46732 6.07376
2 7.88704 1.73199 -0.0747469
2 1.09939 7.99402 6.59198
2 7.88154 10.9411 12.9877
2 11.0253 5.33667 6.62
2 4.01867 0.568033 0.176107
2 12.5288 9.44609 5.35274
2 6.65129 10.7533 11.2113
2 1.10296 7.05554 3.96866
2 6.13686 1.5672 12.5889
2 1.51958 6.42386 7.84715
2 5.76372 0.855086 2.82807
2 10.89 5.54562 9.18719
2 6.35661 9.84086 1.34346
2 10.9124 8.25092 10.0673
2 4.09791 10.0796 2.33691
2 1.86992 3.69924 8.95003
2 8.67212 2.04185 1.94416
2 2.13518 9.28515 8.68274
2 9.23766 9.89241 2.015
2 11.1431 2.7574 8.57333
2 3.09104 2.20704 2.23512
2 2.09219 4.42318 3.79832
2 9.4484 2.47796 10.9225
2 10.4733 9.27497 4.21044
2 3.41291 11.119 10.8115
2 10.0315 3.67903 3.8906
2 4.17214 2.42611 10.8209
2 1.94975 9.16078 4.49686
2 8.86034 10.7927 10.2825
2 0.88626 11.0688 13.1445
2 1.83604 -0.10314 6.56534
2 -0.42474 2.19163 13.477
2 11.7299 11.4657 6.86821
2 12.9463 0.832487 2.7378
2 12.2954 0.911233 8.19184
2 12.6547 0.0276975 11.8079
2 -0.0428878 -0.277931 4.12527
2 11.3741 2.43406 2.37027
2 11.1176 11.0007 9.13008
2 1.3579 9.96836 2.117
2 2.98141 1.36922 8.97544
2 0.854874 2.54133 2.1865
2 1.77692 11.7666 8.76576
2 12.2827 9.52914 2.26116
2 10.1793 0.704228 8.73301
2 0.662231 10.5743 10.5779
2 2.29821 1.09364 4.19427
2 11.9864 1.59206 10.7267
2 10.1691 11.348 4.06639
2 11.5399 10.7061 11.5219
2 10.7713 0.82735 4.21713
2 1.13749 2.62914 10.5
2 2.0862 11.395 4.46452
1 11.6024 6.72449 9.93118
1 4.78278 9.23281 1.00579
1 1.14586 4.70351 7.66428
1 7.43585 1.01586 1.5184
1 0.945028 7.98923 8.04534
1 7.56283 10.6718 0.830571
1 11.0912 4.37674 7.99325
1 4.06197 0.785719 2.00381
1 1.05191 5.39256 4.76561
1 8.1295 1.51898 11.5616
1 11.7456 9.88714 6.51178
1 4.96285 11.0259 11.8282
1 10.7631 4.95474 4.88212
1 4.58415 1.4059 12.2648
1 0.70237 8.35367 5.0425
1 7.91518 11.5511 11.3267
1 10.5904 10.0895 2.93842
1 2.03388 10.4559 9.7257
1 2.09742 2.91208 3.26596
1 10.476 1.99254 9.79146
1 2.75657 10.737 2.96647
1 10.4322 9.80663 10.099
1 9.96943 1.92335 3.32305
1 2.87049 2.81669 9.8985
1 12.6417 2.09025 1.38026
1 11.2604 12.4853 8.15206
1 0.378759 9.95421 0.807414
1 1.7601 0.344121 8.19516
1 -0.0236825 11.5279 11.7826
1 1.52946 12.904 4.67643
1 0.0610462 1.58146 11.6621
1 11.2084 12.5369 4.93622
96
 Atoms. Timestep: 6000
2 12.7884 6.16872 9.55235
2 4.69248 12.7428 10.6366
2 0.221105 5.11455 5.80291
2 7.04028 -0.262152 10.768
2 11.095 4.99529 8.81072
2 8.38517 -0.0150632 0.853024
2 9.92292 9.1884 7.7187
2 3.27883 12.3496 1.41289
2 4.87036 3.83427 3.12986
2 4.79318 11.1614 12.6874
2 2.55789 4.6975 5.94385
2 7.50648 3.09438 0.437994
2 1.09006 7.48734 7.4915
2 8.2729 10.9979 12.7864
2 11.1154 4.78777 7.30164
2 1.23803 11.8343 1.04993
2 11.9645 9.22835 5.97929
2 6.31994 10.6037 11.1979
2 1.50852 7.39443 5.09885
2 6.24571 2.23987 11.3416
2 2.50326 5.43214 8.75525
2 6.03152 0.893155 1.8304
2 9.65971 6.98461 9.69405
2 6.55335 11.2613 1.21935
2 10.1887 9.25668 9.98777
2 3.83739 10.4141 1.78518
2 3.5534 3.08284 8.16501
2 9.02856 2.2396 3.36581
2 1.54204 8.35577 9.84842
2 8.79346 10.4124 2.25079
2 10.7786 4.80574 11.0881
2 3.7685 1.97314 3.01868
2 1.93873 4.55537 4.00843
2 9.13581 3.3167 11.7097
2 10.1482 8.82759 4.35675
2 3.01245 10.1091 10.6973
2 11.7615 2.78133 4.94186
2 4.76914 1.7332 9.00687
2 1.34505 9.92493 5.21115
2 9.19052 11.3756 10.5124
2 12.312 10.1732 0.434464
2 2.28031 12.3285 5.96048
2 0.459608 1.71758 0.130998
2 10.1784 11.2436 6.75901
2 11.7976 3.25025 -0.190945
2 0.36375 11.8938 7.53161
2 0.476977 -0.306861 11.8105
2 12.6225 12.0368 4.37859
2 11.9328 2.10928 2.40416
2 10.7756 11.1354 9.19365
2 1.6603 9.30951 1.30412
2 2.59174 1.09916 7.68251
2 1.45831 3.76154 2.18273
2 2.86017 11.0397 8.70148
2 11.3478 8.84621 1.64496
2 10.3521 2.96068 10.0937
2 12.4913 10.3444 10.0638
2 3.19885 3.15455 0.972219
2 12.1132 2.39315 11.1666
2 11.2569 10.2392 3.46612
2 10.9344 11.4362 12.3961
2 10.4036 0.0524586 3.19078
2 2.33984 1.43035 11.0969
2 2.23103 11.2957 3.69142
1 9.09021 8.51331 9.07949
1 5.21297 10.3833 0.815825
1 3.06538 4.38604 7.58301
1 7.77062 1.63605 1.95771
1 1.52306 6.93533 8.94455
1 8.02809 11.0231 1.01502
1 10.9986 5.98352 9.92977
1 4.16013 1.02476 1.80643
1 1.51033 5.74952 4.96815
1 7.53355 2.81855 12.0853
1 10.3615 9.63913 5.77453
1 4.65172 11.0229 11.0459
1 11.9175 3.95574 6.32805
1 5.89766 1.08654 10.2086
1 0.75038 8.54697 6.2338
1 7.67677 11.1603 11.1794
1 9.91176 9.11398 2.79771
1 1.428 9.97583 9.81949
1 3.16151 3.50487 2.99916
1 10.6641 3.32014 11.7918
1 2.23604 10.7233 2.1272
1 10.9156 10.428 10.8003
1 10.9103 1.69683 3.63345
1 3.13757 1.93082 9.41594
1 0.111443 2.86706 1.38977
1 11.5211 11.8576 7.69305
1 12.8251 8.67732 0.926159
1 2.18129 12.2685 7.4557
1 -0.118657 11.5783 13.1301
1 1.35823 11.5927 4.87553
1 0.900089 1.84091 11.9299
1 11.6521 11.79 3.04896
96
 Atoms. Timestep: 8000
2 12.0824 6.55792 9.30649
2 5.29337 11.7591 11.0135
2 0.77366 4.03385 5.66781
2 6.81131 12.9024 10.4628
2 11.2877 4.1794 9.20251
2 7.40247 12.3712 1.26635
2 11.1617 9.70945 6.38946
2 3.23874 12.6366 1.13567
2 2.56344 2.53214 4.3214
2 4.21031 9.86215 12.2551
2 2.10455 4.9142 7.07961
2 8.12021 0.497029 13.3672
2 0.499485 7.18495 7.61742
2 5.79722 8.34408 7.40165
2 12.3132 4.07164 8.20198
2 1.4739 11.8719 13.3232
2 -0.310355 8.98123 5.46514
2 5.98214 8.7558 9.96265
2 1.73584 6.77522 5.89348
2 7.07343 1.40891 11.6512
2 1.95095 6.20806 9.29675
2 4.94758 0.215946 0.486907
2 9.8109 6.60269 9.47128
2 5.65013 9.84674 0.962555
2 10.9389 8.90656 9.91022
2 3.30305 10.82 0.164031
2 2.85038 3.17741 9.83314
2 9.84489 3.88965 4.59846
2 0.932531 8.59898 9.32295
2 8.00741 11.0613 2.62217
2 11.1115 4.44339 11.7135
2 2.9778 2.45954 1.9849
2 2.75111 4.75352 4.39975
2 10.0485 2.58782 12.2472
2 10.7532 9.86741 3.6969
2 3.62935 10.0121 9.85673
2 12.152 2.87482 5.70615
2 4.49413 1.48371 10.3923
2 1.53881 9.52632 4.82637
2 8.31864 8.71475 8.65701
2 12.6251 -0.0166559 0.00140901
2 2.54511 12.1306 5.5497
2 0.895296 2.39511 0.589393
2 11.3959 11.8304 5.94046
2 12.022 3.82211 0.409946
2 0.33474 -0.538948 7.11274
2 0.562713 0.568122 12.084
2 0.253558 11.4466 4.36242
2 11.8716 2.1665 2.74528
2 11.5764 11.2635 8.72784
2 0.360146 11.965 1.22148
2 2.83235 0.422272 8.22246
2 1.1229 3.67966 2.22426
2 1.41976 9.61141 7.56142
2 10.7038 12.1184 1.86504
2 -0.253692 3.0132 12.4305
2 0.288781 10.5709 10.2439
2 3.18273 5.09585 2.11723
2 2.47145 1.26414 -0.354597
2 9.2965 11.7423 4.23444
2 12.3117 11.5685 11.5705
2 10.2067 1.23829 4.59525
2 1.96447 2.07631 11.4967
2 2.5425 11.4477 2.71492
1 9.70798 8.28223 9.46576
1 4.32222 9.76533 0.0304157
1 2.6546 4.75024 8.5876
1 6.71142 0.357324 0.556996
1 0.460578 6.89822 9.20521
1 6.70205 10.9321 1.66662
1 10.8054 5.23323 10.1504
1 3.46129 1.09526 1.08001
1 1.99337 5.21693 5.71554
1 8.51597 1.48962 12.3588
1 11.9451 10.3523 4.92893
1 5.13654 10.064 10.8722
1 12.6381 4.13286 6.63346
1 5.61004 0.521101 11.2551
1 1.11176 8.51236 6.24872
1 6.8621 8.106 8.56036
1 9.60938 10.9186 2.77335
1 1.75688 9.79942 9.57324
1 2.5148 3.69239 3.00419
1 11.2838 3.58931 12.9049
1 2.12565 11.7199 0.894173
1 11.802 10.4817 10.2073
1 11.2116 2.81616 4.24743
1 2.90177 1.31048 9.96182
1 -0.346795 3.05813 1.66566
1 11.8327 12.4589 7.63221
1 12.2652 12.8772 1.69533
1 2.07353 12.5283 7.18332
1 -0.0160512 12.3966 12.6495
1 1.88566 11.2364 4.37237
1 1.05185 2.05108 12.8053
1 10.3823 13.0788 5.1205
96
 Atoms. Timestep: 10000
2 11.7369 5.82709 8.69159
2 5.84732 10.9432 9.73333
2 1.21978 6.04375 4.57808
2 7.87776 0.164135 7.53657
2 9.98451 5.16077 7.13685
2 7.16566 0.748853 1.62126
2 0.504272 10.176 7.58982
2 2.53905 1.14453 2.60026
2 4.48688 5.35998 0.251545
2 5.69268 9.1544 12.3826
2 3.38546 5.74613 5.65904
2 5.83052 1.28393 11.9439
2 0.683846 7.45903 7.10596
2 5.19952 5.86169 12.0819
2 11.1302 6.58964 4.69859
2 1.59086 11.5366 0.60966
2 0.144501 8.23505 4.33906
2 6.29469 7.99734 10.6631
2 3.38922 8.24744 5.22486
2 7.56396 0.615507 10.4263
2 1.75084 5.08558 7.52425
2 4.58554 1.70285 1.00304
2 9.50584 5.92282 9.6277
2 6.11721 10.6598 1.71089
2 10.6996 7.85781 11.3516
2 3.60085 10.6276 0.956461
2 4.4294 3.78962 7.99124
2 9.41054 4.47552 5.80858
2 2.53677 7.17905 9.27889
2 8.75266 10.4493 2.74534
2 10.5159 3.6719 10.0618
2 2.8561 4.24628 1.87579
2 3.5112 6.55274 2.58881
2 8.59623 2.42641 11.2947
2 10.5371 8.76843 5.13783
2 4.14162 9.3782 10.465
2 11.4829 4.03064 4.40317
2 5.80211 1.0357 8.57164
2 2.59869 10.6071 6.38782
2 7.90024 6.21981 11.7054
2 11.9573 10.3621 1.7623
2 1.68801 0.51687 5.88677
2 11.9223 3.08577 1.30012
2 10.3019 11.833 7.6688
2 9.75402 4.03957 12.9874
2 0.836759 0.411652 8.47748
2 12.1575 0.150295 0.103534
2 1.48251 10.0858 4.45766
2 9.73862 3.75865 3.03795
2 12.2285 10.304 9.70741
2 0.992552 11.3923 2.81501
2 2.92707 2.11717 8.69814
2 11.0034 5.29917 2.61146
2 3.36851 9.31927 8.25258
2 10.9493 10.3583 3.55632
2 11.0048 2.51969 12.4585
2 0.917373 8.72548 10.7125
2 1.83101 6.44891 0.675323
2 1.90431 2.01997 0.39626
2 9.15771 11.5002 5.08252
2 11.7616 10.3053 11.6694
2 8.69696 1.61792 5.35109
2 5.8351 2.74613 9.67151
2 3.27288 11.7106 3.41426
1 9.40483 6.6689 11.0954
1 4.98333 9.75817 0.7253
1 3.14286 4.66008 6.89427
1 5.86121 0.854426 0.683224
1 1.32366 6.37899 8.39427
1 7.36463 11.6902 2.44728
1 10.4432 4.99013 8.84772
1 3.08242 2.45262 1.48599
1 2.74781 6.74641 4.36265
1 6.80763 2.13607 10.9127
1 11.8527 7.44845 6.00661
1 5.91974 9.60062 10.6335
1 12.2609 5.8073 3.74543
1 6.85057 12.2751 9.07215
1 3.53763 9.18781 6.5405
1 6.45214 6.49651 11.201
1 9.48177 10.1179 4.12339
1 2.73381 8.77946 9.80161
1 3.13665 5.74719 1.29769
1 9.92941 3.41946 11.4141
1 2.65238 11.7768 1.81582
1 11.4664 9.04551 10.7018
1 9.77761 3.32164 4.65376
1 4.67099 2.27316 8.87133
1 10.3881 4.01428 1.47028
1 12.1103 11.4482 8.33899
1 0.310213 9.52635 3.37499
1 1.8953 1.37543 7.29002
1 12.3318 10.7264 0.200118
1 2.3327 11.3891 5.14623
1 12.5112 1.84481 12.8767
1 9.15486 12.3554 6.50915
96
 Atoms. Timestep: 12000
2 12.0802 5.64646 9.52123
2 6.08957 9.61835 8.61484
2 12.0761 6.98474 4.76757
2 7.47678 11.6884 7.21742
2 9.55307 4.74548 8.09206
2 5.59142 11.2762 1.32449
2 11.8535 12.2288 6.13504
2 4.89624 2.76243 4.86644
2 3.84235 5.861 1.21327
2 6.61384 6.77456 12.1846
2 2.03264 5.40559 5.76455
2 5.98352 1.31597 11.8177
2 0.473872 6.47748 6.74709
2 5.14434 5.35053 10.9289
2 9.79368 6.84487 3.87828
2 3.00189 11.1906 12.444
2 12.0032 8.0939 2.69694
2 6.85872 6.87861 9.69145
2 2.34343 8.51694 5.45124
2 6.60592 11.9388 9.51954
2 1.83159 4.97903 8.09064
2 4.97121 1.88133 2.27518
2 10.2441 6.94836 10.183
2 6.76131 8.64402 1.47158
2 11.6636 9.52247 9.82121
2 4.13512 8.37606 0.504197
2 4.12647 3.29691 6.93407
2 8.58502 4.11087 6.8142
2 2.49818 7.33965 8.5886
2 5.66998 9.28982 3.34466
2 10.0154 4.88728 11.1078
2 4.95568 4.7006 2.8346
2 2.65631 6.94063 4.05133
2 8.43026 2.41943 10.9572
2 10.8437 9.42379 4.35798
2 4.33073 8.54182 10.3543
2 7.9411 5.15542 5.0937
2 4.87617 11.931 7.70325
2 3.87097 10.546 5.07899
2 7.65128 4.38672 11.6447
2 0.502365 11.2456 1.82858
2 1.59217 11.8152 9.62955
2 11.9941 4.31032 1.83654
2 9.66437 12.7267 7.72591
2 9.42894 3.53214 0.664132
2 0.597621 1.63815 8.25421
2 1.47208 2.15792 1.05497
2 1.76333 10.0179 3.23351
2 9.80794 3.22171 3.56001
2 11.6168 11.6558 9.34194
2 2.16055 9.34039 0.784232
2 3.57829 1.66035 8.89175
2 8.9382 5.19815 2.53169
2 3.2265 9.18037 7.82218
2 11.864 11.4355 3.10754
2 11.9852 1.44539 2.41745
2 1.79578 9.56283 10.9605
2 4.88618 7.46375 2.38949
2 3.09629 2.34862 3.08433
2 9.44892 0.0602806 5.38052
2 0.766061 11.7567 11.9015
2 8.04453 1.94574 5.41233
2 5.5933 1.83235 9.26956
2 3.90694 10.1284 1.95014
1 10.3653 8.51012 10.228
1 5.59419 7.54738 0.82403
1 3.03213 4.59366 6.8921
1 5.34258 1.04361 0.794338
1 1.26099 6.31405 8.34331
1 6.39373 10.253 2.19293
1 10.4629 5.46951 9.71329
1 4.39649 3.15172 3.40765
1 1.64634 7.01428 5.20779
1 6.80981 1.39135 10.4848
1 10.9291 7.71451 3.80418
1 5.84294 8.26783 9.64053
1 8.324 6.15949 3.69402
1 6.19993 11.208 8.18502
1 3.30914 9.62846 6.22364
1 6.79275 5.6457 10.8516
1 10.7807 11.1321 4.23421
1 2.87175 8.87339 9.68864
1 3.89433 6.37195 2.98509
1 9.062 3.71877 11.6742
1 3.69317 9.73728 12.9882
1 0.504819 10.8985 10.7111
1 8.48914 3.54366 5.1203
1 4.79609 1.67052 7.83109
1 10.367 4.18098 1.9839
1 11.1124 0.496387 7.82133
1 0.888218 9.44818 1.85759
1 2.20761 1.09171 8.9657
1 1.55118 12.1835 0.683283
1 3.34756 10.7385 3.54499
1 1.46231 2.95809 2.39109
1 8.40939 0.626878 6.4238
96
 Atoms. Timestep: 14000
2 11.7512 6.49629 9.71175
2 8.24568 11.3984 9.01154
2 11.4014 6.99552 3.72128
2 9.45168 1.80015 7.87321
2 10.4089 8.54526 10.4248
2 5.48067 11.0537 3.51092
2 2.7539 2.18208 7.25556
2 0.501553 1.55615 2.61919
2 2.45499 6.21548 12.8925
2 5.85542 8.01762 12.0994
2 12.107 4.95665 4.14511
2 5.18423 2.13886 2.42015
2 2.15616 6.60568 9.86191
2 5.12306 6.45707 10.0817
2 8.82667 6.65713 2.74567
2 2.08454 9.62894 12.6198
2 10.7861 8.91799 3.07934
2 7.70966 11.3941 11.1059
2 2.12463 7.28003 4.64225
2 7.75979 2.3513 9.6823
2 1.54446 4.06847 9.06076
2 3.25246 0.999091 2.35879
2 10.1146 10.6694 9.54668
2 5.53079 8.03529 2.26856
2 0.552246 8.98919 9.49813
2 3.88316 7.89641 12.8759
2 4.73155 2.9446 9.30738
2 10.8145 5.78276 5.81131
2 1.45402 5.88806 11.5635
2 4.42136 8.1572 4.6585
2 9.47301 5.46671 11.1765
2 2.75937 3.56942 1.57474
2 2.03287 5.32248 2.75101
2 7.36868 3.66817 11.578
2 0.977167 11.7468 6.22907
2 7.53763 8.57314 9.95342
2 9.13933 4.93537 4.58365
2 6.54633 0.988704 8.37333
2 2.66791 9.53172 6.0556
2 7.14119 6.13679 11.5036
2 12.207 10.1923 0.537318
2 2.51072 11.0656 10.9177
2 10.9909 2.43723 12.6146
2 11.9526 2.07075 7.39748
2 9.34972 4.65631 0.79376
2 1.79215 12.1157 8.47068
2 0.396481 12.1633 12.2404
2 0.586003 10.1893 4.06743
2 10.35 3.89461 3.06287
2 0.50618 9.51396 6.73073
2 1.67315 8.88705 2.44685
2 4.151 0.462414 9.60499
2 7.30009 4.41723 2.96831
2 4.02818 7.45777 7.35549
2 11.4111 11.0523 2.63499
2 10.288 1.13786 2.03472
2 2.40301 7.99936 8.42975
2 4.6634 5.75326 1.27238
2 1.06287 2.22999 0.541626
2 10.349 0.969602 4.91342
2 1.24157 1.68642 10.3066
2 10.4402 3.37166 5.74581
2 6.0701 1.30649 10.6515
2 3.90526 9.59781 2.36558
1 11.4014 10.0548 10.2088
1 5.24451 7.2832 0.990289
1 2.96154 3.24041 8.3711
1 4.92668 0.50511 2.91855
1 0.993146 5.28699 9.77244
1 4.90191 9.19137 3.56109
1 10.5089 6.86612 10.4042
1 2.0418 2.12747 1.92548
1 1.17278 6.34887 3.52442
1 7.53375 2.02107 11.2201
1 10.0623 7.46694 2.79442
1 8.24358 10.1407 10.0505
1 7.89413 5.72417 3.86472
1 8.12134 1.11614 8.30941
1 3.32078 7.9843 5.80562
1 6.65631 7.3525 10.6085
1 10.7989 0.587733 3.33588
1 3.54532 7.21962 9.04456
1 3.12308 5.22884 1.55447
1 8.14321 4.91323 12.0838
1 2.87586 8.7177 1.31775
1 0.892051 8.59227 8.10894
1 10.6551 4.47678 4.7049
1 5.36053 1.45363 9.29049
1 9.9169 2.94898 1.23733
1 1.4092 1.14623 7.10478
1 0.315462 9.81937 2.30584
1 2.64765 0.383856 9.85762
1 1.08975 10.6812 11.7138
1 1.00954 10.3742 5.5155
1 12.2479 1.64547 11.9351
1 10.3486 2.10911 6.61388
96
 Atoms. Timestep: 16000
2 11.9782 4.97247 10.6166
2 7.85898 11.09 8.92307
2 11.7712 6.68557 2.47812
2 9.78945 1.65682 7.82545
2 11.0215 7.40246 10.5784
2 4.55844 10.6633 4.01453
2 4.67712 4.35216 5.10292
2 0.808489 2.61157 3.84388
2 3.49036 6.38952 4.8901
2 5.61032 7.88591 12.5672
2 12.1403 5.12093 3.98932
2 5.5607 1.33089 5.0067
2 1.9051 5.40269 9.00976
2 4.10208 6.78554 9.77695
2 9.66211 6.42374 1.53006
2 2.35497 10.2764 12.7136
2 10.8224 8.88422 2.58293
2 6.43094 10.8048 11.393
2 1.22415 7.19769 4.14887
2 8.47969 1.48014 9.72128
2 4.10741 5.6004 7.74115
2 3.48302 1.36994 3.7927
2 8.99423 9.45505 10.6152
2 5.14292 8.42578 2.53325
2 11.4629 9.76873 10.2334
2 3.5553 7.71955 1.31633
2 4.5244 2.92984 8.08046
2 10.2209 6.33922 4.13615
2 1.57302 3.56112 11.2946
2 3.36795 8.51544 4.72456
2 9.0319 5.72991 10.233
2 3.35373 3.81225 3.07904
2 2.78148 6.10891 2.84471
2 7.17636 3.93876 10.516
2 12.3975 11.4828 6.48096
2 6.58305 8.74331 9.9448
2 8.28327 4.64183 2.26434
2 6.96515 0.88497 8.07065
2 1.21275 8.67336 6.18927
2 6.31211 6.33851 10.9711
2 0.861585 10.5267 1.97573
2 2.18542 10.5287 9.54874
2 0.419536 3.43997 0.518186
2 12.2245 1.78666 6.97814
2 7.73741 5.13335 12.7634
2 2.33915 12.3283 8.13169
2 1.54766 1.03095 0.250423
2 11.8346 9.19557 4.72131
2 10.1495 4.35865 2.61539
2 0.0240676 8.93196 7.91191
2 1.40617 7.61043 12.7067
2 4.62146 12.2859 8.14497
2 6.87896 6.87421 1.77356
2 2.31107 6.65534 6.82151
2 11.9609 11.7852 3.16823
2 10.9556 2.364 2.36614
2 1.87266 7.98482 9.3315
2 4.96926 6.01134 2.15914
2 2.05166 2.83406 1.64481
2 10.8985 1.60775 5.05514
2 2.69986 10.4235 7.15144
2 10.4849 3.83926 5.98162
2 6.10717 1.74228 9.87905
2 2.5879 9.53364 2.42594
1 10.5233 8.95176 10.9861
1 5.07153 7.27859 1.20214
1 4.79732 4.25341 6.94206
1 4.24683 0.21156 4.58266
1 1.3525 4.5227 10.0739
1 3.83347 9.29472 3.36186
1 10.6382 5.68912 10.0142
1 2.32932 2.56244 3.28496
1 1.18845 6.12745 2.87022
1 7.35124 2.14591 10.717
1 10.3327 7.24406 2.83472
1 7.52759 10.1555 10.3257
1 8.11241 5.91275 1.33439
1 8.61986 0.471491 8.32675
1 2.45569 7.43083 5.36274
1 5.3562 7.71583 10.7169
1 11.6239 1.44422 3.34991
1 2.93411 6.7195 8.79524
1 4.00253 5.43508 3.47817
1 7.67536 5.28906 11.1794
1 2.3507 8.76019 0.853125
1 0.776344 9.3109 9.35466
1 10.5401 4.90804 4.55795
1 5.4288 1.50826 8.19806
1 10.9994 3.61365 1.23197
1 1.05937 0.639437 7.16883
1 11.8682 10.0277 3.21016
1 3.40162 11.128 8.61935
1 1.52325 11.5975 0.674575
1 0.402024 9.88607 6.29246
1 2.0264 2.55019 12.6111
1 10.7101 2.29578 6.62534
96
 Atoms. Timestep: 18000
2 0.749697 5.03667 10.0155
2 8.6822 10.9642 8.7851
2 11.2478 6.90814 3.44361
2 9.08323 0.744506 6.33044
2 11.7409 7.02984 11.3797
2 4.42401 11.6739 3.95405
2 4.18072 4.05952 5.62466
2 0.57526 2.28198 2.07114
2 4.20179 6.34663 4.76539
2 5.48363 7.85812 11.7056
2 11.31 5.49297 5.11254
2 2.07863 1.09069 5.2489
2 2.99705 4.11825 10.4996
2 5.58579 8.33601 8.74795
2 8.51092 6.87885 2.36821
2 1.07993 8.76277 1.09344
2 10.024 9.21278 3.70404
2 9.20085 10.9068 11.3435
2 1.68999 6.4305 5.04319
2 8.47149 1.21985 9.2271
2 5.06131 5.88865 7.8204
2 3.66945 1.88792 3.01034
2 10.5364 9.63823 10.1778
2 4.93472 8.86741 2.04171
2 1.30458 8.15115 10.3825
2 3.22488 7.62091 1.12663
2 5.42019 3.06658 6.87137
2 9.64476 6.45927 4.58014
2 1.21994 2.50656 11.5067
2 3.77003 8.98877 4.26757
2 9.59037 5.81114 10.4807
2 3.05505 3.74755 2.69484
2 1.80408 4.75967 3.89632
2 8.11981 3.86522 10.6571
2 1.76807 11.1061 6.55686
2 7.37917 9.13028 10.0342
2 6.27556 5.54679 2.98137
2 6.61754 0.496728 7.61653
2 1.62109 8.32395 5.54566
2 7.05467 6.22671 9.82978
2 11.5031 9.96824 1.78388
2 3.4742 10.4347 9.20023
2 9.89755 2.85659 2.41002
2 11.7133 1.22176 6.88205
2 7.41663 5.81032 12.4702
2 1.78816 0.515609 8.32465
2 0.89775 11.1799 11.9233
2 12.0976 10.5853 4.43576
2 8.43953 4.21314 4.1867
2 1.3343 9.32338 7.58722
2 2.19301 7.60584 3.51426
2 4.36563 1.41879 8.8185
2 6.05755 7.0508 1.0951
2 3.94628 8.12214 6.51006
2 10.556 0.125225 3.09086
2 8.00763 4.55591 1.61421
2 3.3759 8.06187 9.07328
2 5.04406 4.72728 3.05634
2 1.93518 1.34656 0.653648
2 11.5288 1.38756 4.40887
2 3.19374 0.109008 10.8929
2 10.1013 3.33592 5.84787
2 6.61904 2.64848 8.99034
2 2.7773 10.2267 2.55221
1 11.7982 8.81668 10.943
1 4.62624 8.1131 0.540309
1 5.40056 4.70934 6.58562
1 3.69615 0.991955 4.315
1 1.48151 3.78845 10.794
1 4.33056 10.084 3.25157
1 11.3583 5.85479 10.2202
1 2.35238 2.53732 1.73888
1 0.501118 5.81573 4.02773
1 7.99187 2.48917 9.94122
1 9.77236 7.55261 3.42164
1 8.79253 9.81252 10.0973
1 7.12269 5.89139 1.40965
1 8.19166 12.3872 7.8293
1 3.21387 7.63863 4.82009
1 6.35841 7.77136 10.333
1 11.2529 1.91888 2.94957
1 4.41284 7.44746 7.87026
1 3.61114 4.71899 4.17337
1 8.12096 5.3236 10.9961
1 2.14112 8.63704 2.28784
1 2.29412 9.29891 8.95294
1 9.57033 4.82061 5.11584
1 5.59596 1.83608 7.98969
1 8.49923 3.5032 2.81872
1 1.32842 0.600192 6.73879
1 10.8075 10.4751 3.26236
1 3.31377 12.1011 9.33656
1 12.2077 10.0643 0.222995
1 0.970254 9.82281 6.16539
1 1.86047 0.750616 11.6112
1 10.4356 1.53459 5.7983
96
 Atoms. Timestep: 20000
2 10.952 4.62956 10.2795
2 9.60587 10.9227 10.4148
2 10.7455 6.81163 3.57411
2 10.1831 1.40825 8.21864
2 11.4369 6.47033 11.9346
2 5.75356 11.351 3.70782
2 6.08189 2.79442 3.61407
2 0.490662 1.65102 3.36771
2 3.48583 6.53422 3.95229
2 5.96071 9.13147 10.8406
2 11.1684 5.18385 5.42619
2 3.82609 1.47777 5.09882
2 0.290849 3.13549 8.39605
2 6.02277 7.86337 8.4437
2 7.69674 6.90241 2.90328
2 1.52581 9.61407 0.729381
2 9.47142 8.97813 3.98315
2 8.01126 9.59512 12.3374
2 1.71131 7.52135 4.98625
2 8.48092 1.60377 10.4861
2 5.32379 5.10999 8.25835
2 3.46408 1.49687 2.9456
2 10.1211 8.38156 11.2582
2 5.60902 9.35595 1.86849
2 0.938053 7.48935 9.52928
2 4.40196 9.63048 12.4358
2 5.74608 2.04466 7.48334
2 8.96581 6.2557 4.73788
2 1.36697 2.67371 10.7993
2 4.89481 8.58842 4.26918
2 9.24288 5.64602 10.8904
2 2.32201 3.61287 3.08195
2 1.60734 6.00697 3.53948
2 6.83666 4.6089 9.69281
2 2.01163 11.3947 5.65103
2 8.00795 9.59119 9.86926
2 5.71927 5.59081 2.57099
2 7.71458 11.7135 8.71397
2 3.03446 9.23575 4.72729
2 7.54828 7.04371 9.75696
2 10.7606 10.3982 1.59934
2 1.99764 9.69831 9.13361
2 9.02756 2.61095 3.27489
2 0.952644 2.03133 6.74965
2 7.48652 5.3248 12.2288
2 2.6189 12.1203 7.46433
2 11.8731 11.1113 11.3279
2 11.9274 9.68905 3.93689
2 8.91457 4.23639 4.59211
2 1.44363 8.9383 6.48272
2 2.52137 11.5663 12.0587
2 4.85778 11.0766 8.36709
2 6.52875 7.46497 0.688127
2 4.30695 6.82445 6.30292
2 10.0304 11.5751 3.55042
2 8.13638 4.96548 2.68473
2 3.13638 7.49501 7.8965
2 4.49847 4.69272 3.2924
2 1.12626 1.83017 0.954868
2 10.2296 1.63922 5.43802
2 2.52138 12.0964 10.0268
2 9.7098 3.71339 6.88445
2 6.5046 1.57941 9.69069
2 4.08662 10.7489 2.1637
1 11.7661 7.81915 10.859
1 6.18765 9.15269 12.4361
1 5.55979 3.74579 7.42127
1 5.05491 1.41161 3.82228
1 0.561054 3.91872 9.98166
1 5.12128 9.9554 3.30301
1 10.4042 5.28543 11.8744
1 2.06114 2.06987 2.3981
1 11.9544 6.41671 4.67901
1 7.1654 2.94323 10.315
1 9.11703 7.53613 3.62283
1 9.25613 9.66792 11.2149
1 7.00444 6.07955 1.8454
1 9.07861 0.77171 9.32003
1 3.5766 7.76844 5.00044
1 6.75529 8.3929 9.60195
1 10.4478 1.59706 3.83275
1 4.82939 6.74464 8.17886
1 2.92478 5.09727 3.50132
1 7.66819 5.84673 10.733
1 2.91286 10.4491 0.912434
1 1.76078 8.24766 8.18154
1 9.72996 4.78534 5.78596
1 6.03494 0.710948 8.33658
1 7.72771 3.56711 3.3254
1 2.61831 1.56371 5.95549
1 10.3779 10.0207 3.33038
1 3.16014 11.0991 8.67276
1 11.6181 10.0304 12.5181
1 1.55985 9.93629 5.00164
1 1.37024 1.08509 11.3578
1 10.8338 2.44915 7.2108
96
 Atoms. Timestep: 22000
2 11.2747 3.27261 11.6268
2 9.34014 10.4902 8.56633
2 11.0782 7.2487 3.43227
2 9.53742 1.87857 7.75682
2 11.11 5.73893 10.9357
2 5.05134 1.35234 2.77633
2 5.79436 3.24101 4.33237
2 11.866 2.68139 3.58688
2 3.6274 7.77221 3.45216
2 6.56501 8.26976 10.2028
2 10.9842 5.58343 4.95904
2 3.71703 1.36689 5.48812
2 11.0884 2.18831 8.95493
2 5.65979 6.93097 8.60555
2 7.63565 7.76497 2.60729
2 0.900315 8.33028 11.7981
2 9.36665 9.44888 3.53946
2 8.28456 9.07292 11.0209
2 1.10945 8.07457 4.88298
2 8.42918 1.20983 10.2736
2 4.57994 5.7241 7.46142
2 3.41859 2.43981 3.31731
2 10.7578 8.70177 10.1869
2 5.5734 10.1433 12.3907
2 0.858198 7.41237 8.97976
2 3.31786 6.77797 1.27055
2 5.34501 2.47534 7.75106
2 8.64791 6.71894 4.90427
2 1.42522 1.19692 10.8745
2 5.35302 9.8354 3.11747
2 9.21174 4.4831 12.0477
2 3.35515 4.3682 2.53078
2 2.2205 5.62786 3.522
2 6.77853 2.8229 11.458
2 1.88499 11.5191 5.51879
2 8.53242 7.92406 8.87069
2 5.286 5.69875 2.4397
2 7.14033 11.5535 8.44544
2 3.28278 9.99288 4.24804
2 7.1828 5.49082 10.3659
2 10.4787 10.1789 1.9415
2 3.00204 9.35777 8.65635
2 8.93109 3.13556 3.71447
2 0.806646 2.10627 7.08567
2 6.90777 5.51993 12.5558
2 2.63573 0.782136 8.29141
2 1.54518 11.0017 12.4247
2 11.8119 10.1571 4.09164
2 8.38098 4.43823 5.19909
2 1.40877 9.28854 6.5088
2 3.66417 0.726814 1.41373
2 4.53613 11.0375 8.7797
2 5.98049 7.61581 12.4998
2 4.96202 8.2807 5.82312
2 10.8707 0.947997 3.96607
2 7.41246 5.19404 2.92184
2 2.78172 7.47272 6.81719
2 4.15329 6.18478 4.66797
2 2.29353 2.75201 1.06599
2 10.4422 2.5545 5.78444
2 3.21098 11.3179 11.0856
2 10.4608 4.96348 7.38086
2 6.39205 1.29546 10.0456
2 3.38653 9.83321 1.4396
1 11.6175 7.27315 10.457
1 6.76928 8.97056 11.5626
1 4.74736 4.17521 8.19815
1 4.81158 2.14831 4.22432
1 11.3301 1.91929 10.6113
1 5.05762 11.3347 1.74304
1 10.9288 4.88425 12.2349
1 2.1005 3.10253 2.81024
1 1.005 6.47552 4.4527
1 7.25662 0.941636 11.636
1 9.16894 7.80224 3.5199
1 9.36426 9.14655 9.56193
1 6.6014 6.35343 1.97893
1 8.74167 0.817449 8.7884
1 4.69124 8.98146 4.27748
1 7.02087 6.85095 9.3145
1 10.3881 2.40347 4.13195
1 4.49831 7.29759 7.1877
1 3.44907 6.19465 2.78143
1 7.65252 4.24696 11.3829
1 3.50881 8.3866 0.803733
1 1.82326 8.4764 7.83673
1 9.50814 5.39145 5.96868
1 5.8814 1.12507 8.57675
1 7.13148 3.85243 3.87751
1 2.31515 1.14104 6.85061
1 10.4105 10.6752 3.47613
1 2.81324 10.9546 9.29863
1 11.5714 9.80419 12.4035
1 1.7674 9.80283 4.93587
1 2.50842 1.14573 12.1819
1 10.5941 3.07872 7.68898
96
 Atoms. Timestep: 24000