96
 Atoms. Timestep: 0
2 0 7.95642 4.74695
2 4.63304 0 11.358
2 0 4.63304 4.74695
2 7.95642 0 11.358
2 0 4.63304 8.47514
2 7.95642 0 1.8641
2 0 7.95642 8.47514
2 4.63304 0 1.8641
2 10.7421 8.43088 6.61105
2 4.15858 10.7421 0
2 1.84736 4.15858 6.61105
2 8.43088 1.84736 0
2 1.84736 8.43088 6.61105
2 8.43088 10.7421 0
2 10.7421 4.15858 6.61105
2 4.15858 1.84736 0
2 10.5201 6.29473 5.04003
2 6.29473 10.5201 11.6511
2 2.06934 6.29473 5.04003
2 6.29473 2.06934 11.6511
2 2.06934 6.29473 8.18207
2 6.29473 2.06934 1.57102
2 10.5201 6.29473 8.18207
2 6.29473 10.5201 1.57102
2 10.1594 8.65935 9.20274
2 3.93011 10.1594 2.59169
2 2.43004 3.93011 9.20274
2 8.65935 2.43004 2.59169
2 2.43004 8.65935 9.20274
2 8.65935 10.1594 2.59169
2 10.1594 3.93011 9.20274
2 3.93011 2.43004 2.59169
2 2.43004 3.93011 4.01936
2 8.65935 2.43004 10.6304
2 10.1594 8.65935 4.01936
2 3.93011 10.1594 10.6304
2 10.1594 3.93011 4.01936
2 3.93011 2.43004 10.6304
2 2.43004 8.65935 4.01936
2 8.65935 10.1594 10.6304
2 0 10.703 0
2 1.88643 0 6.61105
2 0 1.88643 0
2 10.703 0 6.61105
2 0 0 1.872
2 0 0 8.48305
2 0 0 11.3501
2 0 0 4.73905
2 11.2706 2.31295 2.18973
2 10.2765 11.2706 8.80078
2 1.31887 10.2765 2.18973
2 2.31295 1.31887 8.80078
2 1.31887 2.31295 2.18973
2 2.31295 11.2706 8.80078
2 11.2706 10.2765 2.18973
2 10.2765 1.31887 8.80078
2 1.31887 10.2765 11.0324
2 2.31295 1.31887 4.42131
2 11.2706 2.31295 11.0324
2 10.2765 11.2706 4.42131
2 11.2706 10.2765 11.0324
2 10.2765 1.31887 4.42131
2 1.31887 2.31295 11.0324
2 2.31295 11.2706 4.42131
1 11.0086 7.83654 8.10972
1 4.75292 11.0086 1.49867
1 1.5809 4.75292 8.10972
1 7.83654 1.5809 1.49867
1 1.5809 7.83654 8.10972
1 7.83654 11.0086 1.49867
1 11.0086 4.75292 8.10972
1 4.75292 1.5809 1.49867
1 1.5809 4.75292 5.11238
1 7.83654 1.5809 11.7234
1 11.0086 7.83654 5.11238
1 4.75292 11.0086 11.7234
1 11.0086 4.75292 5.11238
1 4.75292 1.5809 11.7234
1 1.5809 7.83654 5.11238
1 7.83654 11.0086 11.7234
1 10.1088 10.1088 3.30552
1 2.48067 10.1088 9.91657
1 2.48067 2.48067 3.30552
1 10.1088 2.48067 9.91657
1 2.48067 10.1088 3.30552
1 10.1088 10.1088 9.91657
1 10.1088 2.48067 3.30552
1 2.48067 2.48067 9.91657
1 0 1.60471 1.57853
1 10.9848 0 8.18958
1 0 10.9848 1.57853
1 1.60471 0 8.18958
1 0 10.9848 11.6436
1 1.60471 0 5.03252
1 0 1.60471 11.6436
1 10.9848 0 5.03252
96
 Atoms. Timestep: 2000
2 12.4415 8.99578 4.6118
2 4.77723 12.7701 12.5543
2 12.4834 5.33324 3.32862
2 8.52832 12.7834 11.0097
2 12.6989 3.99674 7.57601
2 8.12003 12.4611 1.25783
2 11.751 6.6824 7.48875
2 4.48317 -0.0597155 1.75268
2 9.65302 8.24973 6.55992
2 4.48072 11.0096 0.217373
2 0.882763 5.43939 8.35971
2 8.60947 1.65223 -0.525562
2 0.921222 8.03316 6.79717
2 8.37443 10.5226 12.864
2 10.6861 5.1435 5.85151
2 4.63057 1.40657 0.16818
2 10.369 7.5437 4.54007
2 6.56441 11.413 12.0076
2 0.997632 7.1969 3.87591
2 6.94878 1.483 12.0073
2 2.13429 3.23221 10.5749
2 6.79397 1.72807 2.02171
2 10.5219 5.29812 8.14298
2 6.09181 11.376 1.65942
2 10.0466 8.28041 8.91931
2 3.15236 10.748 2.29745
2 2.47764 0.581691 9.92052
2 9.48018 1.75266 2.11814
2 1.64675 9.11485 9.23637
2 8.38413 10.2744 1.82565
2 12.7218 3.05873 10.1791
2 3.64544 2.54337 2.86565
2 1.60639 4.53385 2.63468
2 9.9751 1.68609 11.0367
2 10.2724 10.5133 4.15281
2 4.08849 10.8047 10.5622
2 10.4972 3.76083 3.98504
2 3.97079 1.2191 11.7107
2 1.45817 9.93043 4.20151
2 9.34972 10.0576 10.6126
2 12.51 10.517 13.3977
2 0.514286 1.92101 8.68661
2 -0.0358336 0.679401 -0.417913
2 10.8554 2.70419 6.44244
2 0.150977 12.407 1.75708
2 0.20011 12.3073 7.91101
2 12.4208 11.6596 11.5416
2 0.0779031 2.01135 5.2217
2 11.702 1.95141 1.78525
2 10.5584 10.9652 8.74889
2 0.191086 10.8032 2.92926
2 2.16742 0.044689 6.80333
2 1.00171 2.20174 2.1166
2 2.06575 11.8358 9.14772
2 11.1528 9.60664 1.65679
2 12.0982 0.198944 9.70804
2 1.40232 9.62897 11.3639
2 2.35298 2.06155 4.29689
2 11.8549 0.697244 11.6778
2 11.6559 0.58816 7.03199
2 11.5578 9.31981 10.6377
2 10.6953 1.46361 4.22203
2 1.7466 0.462817 11.8264
2 1.70389 -0.352029 3.90931
1 10.0402 7.09617 7.96034
1 4.50018 11.7236 1.6072
1 0.644485 3.56601 9.23738
1 8.28868 1.07324 1.241
1 0.142169 6.95925 8.0008
1 7.49655 10.871 0.760286
1 11.2909 4.16447 6.91324
1 4.98077 1.67661 1.88082
1 0.739919 6.29667 2.75989
1 8.44101 1.05775 11.5447
1 10.662 9.08279 5.09499
1 5.02235 11.2905 12.1105
1 10.9985 5.59533 4.36358
1 5.23478 1.02728 12.5834
1 0.856512 8.52948 5.00938
1 8.22842 11.1312 11.235
1 9.95868 10.3573 2.43425
1 2.49525 10.5609 10.4268
1 2.11104 3.09905 2.88122
1 11.4191 1.60826 10.2174
1 1.7243 11.385 3.35245
1 10.4653 9.67802 9.58491
1 10.4685 2.54462 3.03327
1 2.45901 1.79 11.1968
1 -0.229283 1.21127 1.26965
1 11.5108 12.746 8.23652
1 12.811 10.5418 1.32931
1 1.26391 0.369097 8.5768
1 12.7304 9.99926 11.6065
1 1.84616 0.973289 5.15857
1 0.335786 -0.368157 12.1651
1 11.7435 1.50609 5.47284
96
 Atoms. Timestep: 4000
2 12.7116 7.44287 5.00668
2 3.76987 11.9852 12.1124
2 12.4284 4.52651 4.08879
2 6.46389 12.7687 10.6987
2 -0.0863691 4.26302 7.70517
2 8.21458 0.138281 0.61107
2 0.09836 7.19695 8.0358
2 4.12844 0.065272 1.19546
2 11.2444 8.50361 6.91952
2 3.70145 10.3831 0.434422
2 1.33074 5.71588 9.08789
2 7.55346 3.13188 12.5968
2 1.74686 7.75423 7.05307
2 9.1251 11.279 0.0915875
2 11.0206 5.14922 5.5666
2 4.92784 1.28406 13.0156
2 10.8067 6.9393 4.23367
2 5.62068 10.2414 11.6211
2 1.37478 6.38793 4.24917
2 7.11796 4.15858 9.59339
2 1.90935 2.80699 9.3007
2 6.15813 2.03256 0.966952
2 10.6169 6.40788 7.49681
2 6.61239 11.0565 1.16666
2 10.7049 8.66677 9.53321
2 4.49469 10.8043 3.00532
2 1.43886 0.255856 9.30464
2 8.91522 1.89414 1.54757
2 2.04795 7.86923 9.84249
2 8.85672 10.3799 1.88058
2 11.8588 4.16134 9.80967
2 3.64513 2.45821 2.34793
2 1.49083 3.54736 3.36947
2 9.61657 3.26107 11.4527
2 10.9102 9.65352 4.11097
2 2.53052 9.38611 11.84
2 10.1007 3.89677 3.22748
2 4.04935 1.34595 10.1214
2 2.61087 9.05188 4.49004
2 8.0009 10.2685 10.269
2 0.592721 10.8608 13.5491
2 1.13293 4.26393 5.77745
2 -0.442845 1.12601 0.123901
2 11.0316 3.15882 5.94473
2 0.331014 -0.372992 2.10228
2 12.7636 12.0726 9.25897
2 -0.203017 12.7431 11.511
2 0.0865696 0.801535 6.14183
2 11.8324 2.49916 1.68937
2 10.4651 11.5005 9.55852
2 2.04724 10.5178 2.24696
2 1.72494 12.6869 6.88345
2 1.13633 1.22122 2.99557
2 2.39542 10.6788 9.9111
2 11.9146 10.7671 2.02867
2 10.5945 1.04421 10.0323
2 0.210281 9.70538 10.9122
2 2.30021 1.23763 4.95119
2 11.9477 2.35786 11.6296
2 11.0683 0.213383 7.38035
2 11.0155 10.8652 11.5057
2 10.5783 1.50885 4.11473
2 1.53557 1.40337 11.3806
2 2.62497 11.8736 4.52071
1 11.5817 7.87495 8.39985
1 4.79295 11.453 1.30576
1 0.698722 4.09983 9.24467
1 7.5723 1.94689 0.318262
1 1.53763 6.99144 8.42807
1 8.12992 11.6418 1.26868
1 11.312 4.43023 7.10391
1 4.4201 1.81228 0.97414
1 0.865129 4.80908 4.22333
1 7.87223 3.42652 11.1577
1 11.2151 8.32852 5.28599
1 4.16417 10.101 12.3255
1 10.9332 5.2231 4.08333
1 4.75093 0.18598 11.5239
1 1.64173 7.57374 5.1671
1 6.54284 11.0081 10.5382
1 10.3147 9.8376 2.35726
1 1.83048 9.32528 10.4628
1 2.38288 2.17687 3.54967
1 10.8146 2.4987 10.5809
1 2.68081 10.6247 3.51326
1 9.80028 10.1822 10.4123
1 10.2996 2.47504 2.78415
1 2.26998 1.50053 10.0785
1 12.9987 1.2465 1.8613
1 11.318 12.6493 8.92447
1 0.693198 11.0198 1.55416
1 1.91444 11.7047 8.12717
1 12.5419 11.1188 11.7725
1 1.53612 -0.220856 5.25663
1 0.0106739 1.07368 12.1227
1 11.0905 1.4091 5.68322
96
 Atoms. Timestep: 6000
2 12.1116 8.54389 6.02469
2 4.51261 0.0950691 11.7243
2 1.36496 4.15827 5.10605
2 6.38272 2.61905 11.0522
2 11.565 4.24143 7.98651
2 10.3895 1.35151 0.752261
2 12.0942 7.49369 8.09131
2 4.94137 11.928 2.10069
2 9.78867 7.83011 6.33938
2 4.67351 10.0211 0.716388
2 1.60724 6.16604 8.87356
2 7.95509 3.02336 12.5754
2 2.1944 7.99656 6.6719
2 7.9765 7.19932 3.04854
2 11.1347 5.19331 5.35539
2 5.18265 2.1989 0.785296
2 10.9239 8.09105 4.40615
2 6.19404 11.1031 11.1536
2 1.41586 6.90406 4.25329
2 8.284 2.30863 9.61372
2 1.39927 3.2162 9.12629
2 7.65509 1.19915 1.60258
2 9.99313 5.47831 7.42681
2 6.07972 9.26598 2.34106
2 9.84789 7.56016 9.51239
2 2.95347 10.3398 2.15293
2 2.58576 1.40826 9.17167
2 10.0611 2.98677 1.91268
2 2.38192 8.59465 9.33656
2 8.78746 10.0762 2.3132
2 8.35408 1.96908 7.04927
2 5.669 1.7791 3.59643
2 3.45058 3.83057 4.37946
2 8.4024 12.3691 9.60249
2 9.91137 10.5526 4.98197
2 3.71797 9.4591 11.9154
2 11.3151 5.196 2.89018
2 3.63435 2.63697 11.2103
2 2.01395 9.65806 4.2965
2 8.52277 9.70203 9.94554
2 10.9078 11.1691 12.9095
2 3.49317 6.2083 4.36899
2 9.69703 3.28226 10.9864
2 10.3268 2.48442 6.41895
2 0.656471 1.01605 1.82596
2 0.538718 0.200488 9.1801
2 10.794 12.2729 11.2805
2 0.233759 1.50618 4.97871
2 0.602955 3.13677 2.91203
2 10.8124 10.0375 6.88647
2 0.269846 11.0707 2.10044
2 2.30003 11.8832 7.20093
2 2.92803 1.92149 3.22722
2 2.4828 10.9767 10.2176
2 10.0941 11.6008 2.02389
2 11.1466 10.3556 9.35644
2 0.449489 9.43252 11.3474
2 3.97694 0.815268 4.63871
2 10.1819 1.56089 9.55045
2 11.0109 12.52 7.17008
2 10.4983 8.94559 11.0716
2 10.5827 2.06473 3.9818
2 12.6762 2.14407 10.9512
2 1.96323 12.1402 4.08075
1 10.4771 6.8933 8.02318
1 4.65387 10.1406 2.35126
1 0.688226 4.56527 8.71254
1 8.72621 2.36708 1.02268
1 1.47817 7.65233 8.1289
1 7.56804 8.82239 2.45296
1 10.626 3.95775 6.50541
1 6.02378 1.31442 1.97609
1 2.12096 5.28518 3.68676
1 7.92568 3.21721 11.0601
1 10.4548 9.27667 5.7222
1 4.78427 10.6155 12.134
1 11.4165 6.37604 4.13449
1 4.82645 1.93791 12.0251
1 1.6205 8.43558 5.21741
1 7.59487 10.8151 10.0083
1 9.87887 10.8134 3.34358
1 2.25809 9.31847 10.9879
1 4.28458 2.24741 4.18184
1 8.79316 1.3838 8.546
1 1.39066 10.7368 3.25312
1 9.12289 8.37574 10.6582
1 11.123 3.56572 3.07182
1 2.02713 2.20961 10.5171
1 1.15683 1.52941 3.48662
1 11.7432 11.3462 8.27841
1 11.4892 12.1633 1.34858
1 2.53424 12.0583 8.81855
1 11.3813 10.2646 11.3069
1 2.99622 12.2484 5.62444
1 10.9399 1.58846 10.8881
1 11.1554 1.30544 5.81648
96
 Atoms. Timestep: 8000
2 1.50378 8.34007 4.74189
2 5.71084 12.4336 11.8841
2 3.59287 6.62569 4.17418
2 6.76109 1.7165 11.8789
2 1.01195 4.38901 7.04998
2 9.72981 0.398544 1.89431
2 0.172821 8.42263 8.92654
2 5.59834 12.222 2.14503
2 -0.0727468 8.40495 6.83231
2 4.78558 10.4314 0.674214
2 1.70484 6.19377 8.83497
2 9.11993 1.97743 0.128375
2 2.9817 7.49867 10.6904
2 8.282 8.93445 3.07662
2 10.8971 5.31651 5.68899
2 5.31296 1.67627 0.286726
2 11.6804 7.38104 4.98339
2 5.50944 10.6941 10.6155
2 3.59389 9.78373 5.32696
2 7.34144 10.2344 5.78147
2 2.0923 3.50381 9.27121
2 7.21662 1.52575 2.09938
2 11.7044 6.51093 7.9667
2 6.31001 10.2787 2.65429
2 10.6144 8.40695 9.64583
2 2.72533 10.7701 2.05335
2 1.61586 1.283 8.56764
2 9.59307 3.07472 2.45761
2 1.16421 9.08606 10.6356
2 6.07169 7.83221 4.24194
2 9.68084 11.2983 6.36093
2 4.30924 2.32744 2.03887
2 4.0848 4.17584 4.30118
2 7.16969 11.5488 8.43835
2 7.42721 5.61083 3.69541
2 3.02538 10.7779 11.5318
2 9.68445 5.77729 3.44522
2 4.05446 1.99937 10.6706
2 3.72183 9.17585 2.8935
2 8.09941 9.55551 10.637
2 11.4979 11.8435 0.963549
2 3.60083 5.0067 6.91672
2 9.21425 1.85013 10.4502
2 10.7044 3.74135 7.26496
2 12.1184 1.59289 2.51432
2 12.3598 11.7712 7.32918
2 11.469 0.352332 10.3247
2 0.307867 1.86225 4.4106
2 11.5601 3.89719 2.8807
2 11.3436 9.7151 5.54294
2 12.4547 11.1392 3.10193
2 1.76745 0.151863 6.02333
2 2.44104 3.01641 2.71778
2 1.16672 11.7177 9.15209
2 8.68993 6.62977 5.55753
2 10.2678 9.3141 7.61142
2 1.06229 11.5548 12.1469
2 3.25887 1.43472 3.81339
2 10.0334 1.13504 8.06364
2 12.2275 2.29932 5.68702
2 10.4385 11.1207 11.3816
2 10.0631 3.26969 5.27816
2 2.42776 0.20139 10.2797
2 2.22239 11.8169 4.14603
1 11.3791 8.14813 8.25044
1 4.59473 10.7444 2.27466
1 2.26342 4.63952 8.0847
1 8.81915 1.82751 1.5482
1 1.41563 7.78301 9.53271
1 6.77783 8.979 3.4069
1 11.8155 4.92887 7.0706
1 5.75679 1.24908 1.7664
1 3.83474 5.39024 5.421
1 8.40026 2.01703 11.9291
1 12.5905 8.82707 5.24735
1 4.83772 10.9198 12.1678
1 10.1384 6.67383 4.94171
1 5.307 1.70339 11.8819
1 3.05673 8.18296 4.17216
1 6.73545 10.102 9.81696
1 7.10431 6.50293 4.81057
1 1.72209 11.1245 10.7032
1 3.82466 2.88508 3.34712
1 7.76161 11.211 6.84941
1 1.55795 10.6498 3.21
1 9.80175 9.80137 10.643
1 9.99464 4.22496 3.79171
1 2.43853 1.902 9.99091
1 0.515434 2.99631 2.82592
1 11.0025 10.671 6.70721
1 11.4814 -0.0281334 2.45301
1 1.25197 12.5428 7.67042
1 11.9599 11.8991 12.5065
1 1.84598 0.683767 4.2931
1 10.1991 1.0354 9.67443
1 10.7377 2.01797 6.79084
96
 Atoms. Timestep: 10000
2 12.1717 9.60987 3.96685
2 4.64708 1.0835 11.7211
2 3.47532 6.86332 4.16394
2 6.16879 3.62755 0.468452
2 1.19372 4.75794 4.27195
2 9.96323 0.881411 1.79599
2 3.28554 8.7452 7.53756
2 4.77418 11.3627 2.33864
2 0.952823 8.71484 5.96553
2 3.99118 10.7259 0.47231
2 4.96576 7.49437 7.49179
2 8.06324 2.62843 0.623383
2 4.54441 8.98783 5.7527
2 6.0167 7.93503 12.1131
2 10.7198 5.63249 6.38353
2 5.38009 2.04901 1.64671
2 11.2034 7.16139 4.72833
2 6.54357 10.5415 12.0589
2 6.21141 7.44681 4.48298
2 6.17724 9.2446 8.342
2 3.56598 4.43483 8.49972
2 7.19964 0.971478 2.22852
2 0.982302 6.80549 8.04884
2 4.31748 8.1174 1.65092
2 7.98951 9.35038 0.702069
2 2.78609 9.8539 2.79024
2 1.88948 2.08707 8.64739
2 9.48795 2.85934 3.18334
2 4.29618 10.3655 8.60938
2 6.56402 7.46491 1.72748
2 9.13462 9.23821 7.82701
2 4.42295 2.19951 3.53936
2 3.12374 3.70916 4.39778
2 7.46743 9.34174 10.1329
2 8.64742 7.82221 2.58368
2 3.98559 10.9219 10.5741
2 10.074 4.47901 4.56197
2 4.05427 3.08186 11.0923
2 4.76294 9.21459 3.30812
2 10.1505 10.7561 0.676862
2 11.4915 0.769596 11.5936
2 2.91988 5.50159 6.25217
2 7.2672 4.70803 10.579
2 12.2369 4.40345 8.41044
2 12.1381 0.710621 1.71404
2 11.6572 11.3923 8.70315
2 7.53791 6.87646 8.79806
2 11.2282 1.46363 4.87424
2 11.7954 2.891 3.61238
2 10.6165 9.42617 6.3579
2 11.7982 10.3536 1.71172
2 1.08938 12.1374 6.84567
2 2.3152 2.19302 2.4492
2 1.93416 11.5948 8.66549
2 8.36234 6.2374 3.83273
2 0.686756 9.50661 8.0926
2 11.0748 5.07067 11.7511
2 1.90532 1.48809 5.05278
2 9.53599 4.52332 9.0809
2 11.5917 2.13935 8.72203
2 10.018 7.21984 0.733813
2 10.3662 3.06395 6.48758
2 4.13133 1.41074 8.79929
2 1.28398 11.5374 4.13634
1 1.5953 8.23997 7.37459
1 4.13142 9.75934 1.88767
1 3.75499 6.08943 7.7857
1 8.64056 1.88516 1.92357
1 4.95962 9.15981 7.30621
1 5.32486 7.03535 0.856101
1 11.7557 5.95619 7.60963
1 5.75806 1.08247 3.03653
1 2.58739 5.49207 4.60292
1 7.48137 3.90812 12.0297
1 11.5307 8.65283 5.24742
1 5.06088 11.2427 11.8313
1 9.81832 6.13834 4.84466
1 4.71869 2.91159 12.5672
1 4.50825 7.98883 4.36682
1 7.11223 8.91149 11.9292
1 7.25184 7.09768 3.02955
1 3.38725 11.6565 9.03157
1 2.95142 2.26741 4.04123
1 7.74727 8.51781 8.52547
1 1.16194 10.2932 2.78689
1 9.47463 9.01926 1.14189
1 10.2323 2.71076 4.64597
1 3.55053 2.81528 9.37471
1 0.715944 2.14086 2.04968
1 10.8944 10.0497 8.1589
1 10.9947 11.986 0.704299
1 0.763874 0.87298 8.39625
1 10.7055 6.6694 11.8742
1 0.703169 0.65866 5.35258
1 8.08155 5.5105 9.37304
1 10.9072 3.38751 8.0541
96
 Atoms. Timestep: 12000
2 1.05319 10.2722 5.005
2 3.96006 0.856351 10.2262
2 5.14732 7.18799 5.1745
2 3.69114 3.3937 9.71273
2 1.18782 5.02222 3.61025
2 7.51082 1.95531 12.7564
2 3.34564 7.79122 8.78795
2 3.8953 0.823055 1.78118
2 1.83004 9.15029 8.16827
2 3.55925 11.4479 12.5292
2 4.03234 6.08165 9.7193
2 8.43269 4.31342 0.543632
2 5.13333 7.63129 7.62931
2 6.03261 7.20085 12.5269
2 0.771812 5.30311 5.77567
2 3.94483 2.57949 12.5973
2 1.19976 8.12955 5.37135
2 5.65497 10.2065 11.7279
2 7.40441 7.8766 5.29543
2 6.43311 6.84243 9.16171
2 2.2032 3.7807 7.87899
2 6.24282 2.53411 1.60607
2 1.53578 6.33579 8.14588
2 4.46306 9.66376 1.8576
2 8.23105 8.90782 0.167685
2 2.32201 11.3471 2.83015
2 0.538254 10.8936 7.34607
2 8.74439 2.3651 2.57678
2 5.86622 8.6384 10.33
2 6.07667 7.71715 2.77699
2 9.4322 7.73708 8.3999
2 4.14567 3.93979 2.33706
2 3.33902 5.43561 4.30913
2 7.95855 8.50643 10.2864
2 8.29833 9.16422 2.95784
2 3.30575 10.9379 10.3003
2 10.6549 4.63947 2.65986
2 2.01173 1.20824 9.99891
2 7.31204 7.13155 7.37472
2 9.94495 10.7827 1.71047
2 9.35239 1.08973 0.980992
2 3.75436 4.89504 7.12446
2 9.33803 4.51643 10.6184
2 11.4829 3.65847 7.43445
2 11.8397 1.29353 1.13066
2 10.6655 10.3396 9.25592
2 8.50876 5.6488 9.20797
2 11.2255 1.86357 3.85341
2 1.75552 2.85413 12.3602
2 11.8518 8.96207 7.437
2 11.7994 11.1977 2.31117
2 1.46403 2.2571 5.83739
2 1.36342 4.04418 1.69302
2 0.48712 11.43 9.66642
2 11.433 7.07063 3.41367
2 12.1427 7.64411 9.37338
2 10.8108 5.46014 0.470501
2 1.55445 2.71465 3.47076
2 9.5161 3.79215 7.68559
2 11.4485 0.855584 7.3147
2 9.72379 7.56997 1.21528
2 11.1887 3.53063 4.98459
2 2.32773 0.475234 8.1184
2 0.51065 12.2096 3.83045
1 1.58602 7.70845 8.84633
1 3.72334 11.0918 1.6374
1 3.38649 4.73422 8.78034
1 7.9244 3.00159 1.13902
1 5.00852 7.31448 9.31089
1 5.38588 8.37658 1.56251
1 0.498507 5.01259 7.40293
1 4.49449 2.45535 1.47723
1 3.84426 6.05037 5.71958
1 9.51921 4.74694 12.2971
1 0.927422 9.58614 6.50431
1 4.57837 11.5416 11.0737
1 0.631425 6.71439 4.55978
1 2.98832 2.28764 11.0803
1 6.19453 8.02487 6.34586
1 6.94311 8.85118 11.6672
1 7.29506 8.03735 3.7349
1 2.09042 11.6862 9.32175
1 2.48908 4.27509 3.09714
1 8.03097 7.24988 8.94568
1 0.823259 10.6786 3.3035
1 9.40372 9.39465 1.43779
1 10.307 3.152 3.42741
1 2.51157 2.17239 7.1804
1 0.707065 2.81574 0.910111
1 10.9137 8.26243 8.63352
1 10.9696 11.8982 0.824507
1 11.4162 11.4222 8.32872
1 10.5816 6.4932 1.84154
1 0.684099 1.73366 4.53375
1 8.65878 4.00176 9.09859
1 10.8194 2.53375 6.67346
96
 Atoms. Timestep: 14000
2 10.4652 9.07502 4.37453
2 4.64453 1.28935 11.8186
2 5.5389 5.7473 5.66046
2 3.4417 3.86469 10.737
2 1.80883 5.58728 3.95122
2 7.96101 0.693162 3.26207
2 3.54909 8.03204 8.56354
2 4.67661 0.758839 2.9846
2 1.57509 8.55581 6.372
2 4.46349 11.2614 0.815413
2 4.41125 5.52967 7.91815
2 8.42657 2.78042 1.21767
2 5.51305 7.8979 7.38857
2 8.97535 10.2315 1.5038
2 11.5392 5.60704 5.25142
2 4.65641 2.76146 0.821717
2 12.0629 7.91751 4.35842
2 5.29492 10.6176 10.9746
2 6.75433 8.60712 5.22254
2 6.52322 6.54358 8.88479
2 1.10186 1.04043 5.0488
2 6.37204 2.52917 2.44947
2 1.61749 6.26271 6.98747
2 4.0833 10.2231 3.54715
2 7.24689 9.18552 12.3367
2 2.33368 11.7092 2.61277
2 12.0165 10.5207 6.36152
2 8.17645 3.12384 3.77212
2 5.46257 8.02643 10.1503
2 7.88042 10.0198 3.68333
2 9.51186 8.4983 8.09387
2 3.81885 3.38355 2.94106
2 3.18157 4.41408 4.79358
2 7.43856 8.86244 9.70077
2 9.03485 7.27761 3.65926
2 3.19984 11.8487 10.7555
2 9.07873 5.0255 3.6362
2 2.36818 2.70445 9.34927
2 7.7112 7.35202 7.10676
2 10.2852 10.0312 12.2322
2 0.644917 12.0609 11.4982
2 3.20584 3.41357 6.90502
2 8.72409 3.77516 11.563
2 11.697 3.778 7.41751
2 11.8367 0.751493 0.707057
2 11.0018 10.3288 8.20936
2 8.77553 6.06907 9.30817
2 10.6737 3.49634 3.98469
2 2.41674 1.67149 12.492
2 11.1546 8.4191 6.86167
2 12.4635 10.5664 1.31708
2 0.678445 3.089 5.56213
2 2.40632 3.38994 1.48613
2 1.38523 11.7863 8.76572
2 10.7726 6.03569 2.60526
2 0.879841 8.28448 8.85599
2 8.67474 5.35139 1.0222
2 1.01789 3.18433 2.99083
2 9.28013 3.84846 8.59427
2 10.878 1.12199 7.69779
2 9.03989 7.66884 1.40511
2 9.46325 3.30253 6.41413
2 2.2766 1.3387 7.60066
2 11.89 0.775735 3.29966
1 1.94315 7.82472 7.81115
1 4.07596 11.42 2.36596
1 3.46645 3.99066 8.75403
1 8.0125 2.18271 2.5839
1 4.82063 7.02971 8.79381
1 8.27788 11.1933 2.77415
1 0.310627 4.98109 6.58707
1 4.85821 2.12045 2.35377
1 4.48186 4.41166 5.66683
1 8.22824 3.88995 0.315452
1 11.9958 8.92154 5.46019
1 4.55822 11.8436 11.8438
1 11.9688 6.23727 3.82361
1 3.87482 2.70367 11.9361
1 6.35021 7.42438 6.07402
1 6.34767 9.18472 11.0937
1 8.6812 8.87051 4.3927
1 2.52009 0.980842 9.1903
1 2.49496 4.22272 3.27807
1 7.97354 7.55174 8.74141
1 0.77224 11.3239 2.82031
1 8.91678 9.0383 0.418271
1 9.30607 3.67795 4.71283
1 2.14361 2.01928 6.23119
1 1.23009 1.84265 1.11551
1 11.0889 8.73577 8.58299
1 11.6798 11.1947 12.4411
1 11.843 11.7114 7.78257
1 9.29105 6.11897 2.47008
1 11.872 2.40036 3.94768
1 9.20294 4.75433 9.97764
1 10.4945 2.75155 7.7704
96
 Atoms. Timestep: 16000
2 9.32252 10.0707 5.36079
2 3.60326 1.28752 11.535
2 5.43167 6.68458 7.02079
2 4.54753 3.17598 10.1424
2 0.918584 4.80105 4.20718
2 7.60187 0.893253 3.47559
2 4.59244 6.61622 9.54208
2 3.24103 0.694904 2.0678
2 3.2789 6.24528 7.71595
2 3.51574 10.7572 12.0257
2 5.98408 4.98965 8.70376
2 8.51167 2.93923 2.1309
2 6.04936 8.59437 8.02865
2 8.25679 11.4461 1.36331
2 11.313 6.14281 6.17979
2 3.46665 3.10977 0.734038
2 11.5852 10.0855 3.68284
2 4.98615 10.1559 10.6386
2 6.5177 8.9249 5.48873
2 7.83771 6.79357 9.94182
2 0.371939 1.67282 4.90335
2 6.563 3.66982 3.74786
2 1.90331 4.85292 9.0571
2 5.05595 11.0972 2.0441
2 6.91478 9.46802 0.30922
2 2.04077 10.3532 1.99923
2 12.0469 10.5289 5.58161
2 8.15243 3.00761 5.28496
2 5.90443 7.44435 11.1073
2 7.50046 9.88678 2.823
2 10.6116 7.69521 8.70945
2 2.63165 3.03716 3.22439
2 3.37739 5.09793 5.35787
2 4.64872 9.19832 0.844607
2 8.43392 7.9691 3.48233
2 3.80045 0.551363 9.01402
2 9.46093 5.22922 5.20105
2 5.28524 2.21389 7.45438
2 8.05738 6.55951 7.56899
2 9.54854 10.4048 11.2147
2 10.8435 11.7271 9.33539
2 4.02463 4.07956 7.52769
2 9.1529 4.27651 11.9379
2 10.3116 4.78206 7.36896
2 10.9041 1.41175 11.6048
2 0.943268 10.0105 7.74
2 9.2542 5.12485 9.40957
2 10.4968 3.49273 4.3828
2 1.66227 2.69925 11.1069
2 12.1227 8.46548 6.06123
2 11.6743 10.6032 12.5618
2 1.39511 4.35156 6.89806
2 11.1865 3.35162 10.965
2 2.77044 11.5421 6.55242
2 10.6423 6.65165 3.05227
2 2.03165 7.48571 9.04334
2 9.16386 5.8273 1.56727
2 11.0739 2.83044 1.67028
2 9.75295 2.12559 9.61904
2 12.1655 1.24794 7.19571
2 9.0992 8.57146 0.921126
2 9.69268 2.43795 7.05142
2 2.88653 2.11194 6.69973
2 11.5779 0.829619 3.23783
1 2.89716 5.93396 9.15505
1 3.67635 10.5514 1.35105
1 5.1375 3.29484 8.73316
1 7.87293 2.47467 3.73443
1 6.20822 6.402 9.83185
1 6.94912 11.431 2.35305
1 11.829 4.92187 8.27447
1 3.60707 2.38904 2.03293
1 4.12523 5.69298 6.62469
1 9.51611 4.0093 1.36931
1 10.9587 9.43718 5.40744
1 4.23681 11.5928 10.5633
1 11.3043 5.60939 4.61008
1 3.29646 3.04175 11.2234
1 6.81518 7.64305 6.89424
1 5.62961 9.00116 11.7727
1 7.76228 9.30078 4.38144
1 4.003 0.938894 7.28904
1 2.46167 4.61887 3.86619
1 9.05746 6.59413 8.84077
1 12.1642 10.9002 2.11438
1 8.27189 10.1232 12.5312
1 9.56685 3.53818 5.95751
1 1.3436 2.64533 6.43756
1 0.386464 2.80992 12.3692
1 0.607119 8.43738 7.88938
1 11.0681 11.3582 10.9634
1 1.35642 11.2813 6.81566
1 9.35239 7.33815 2.326
1 11.6046 2.62285 3.29425
1 9.581 3.8228 10.3846
1 10.4289 1.23609 8.24654
96
 Atoms. Timestep: 18000
2 9.76367 8.75327 5.00902
2 5.46258 1.14503 11.2118
2 6.64359 6.39972 6.17027
2 4.19935 3.2175 9.65313
2 1.89087 5.26292 3.83345
2 7.63041 0.818814 2.61744
2 3.99637 7.37072 9.60728
2 4.45371 0.755534 1.92575
2 3.22533 6.72634 7.08862
2 3.65216 10.7393 11.9034
2 4.68957 5.07248 7.244
2 7.6474 3.07064 2.13823
2 5.76918 7.50117 7.87267
2 8.79497 10.6467 1.59532
2 0.584122 7.67145 4.81392
2 4.26562 3.08722 12.7341
2 11.8094 9.55996 4.14461
2 6.098 10.287 10.8372
2 7.3266 8.67701 5.19567
2 5.6423 5.48458 9.12686
2 1.62024 3.3524 4.5317
2 5.52111 2.29838 3.39307
2 1.29747 6.53429 7.93975
2 5.69743 10.4817 2.07526
2 7.67934 8.9558 0.70896
2 2.6085 10.0397 2.36147
2 0.587652 10.4207 5.86297
2 8.0229 1.28571 4.70044
2 6.21363 7.67518 11.2047
2 7.94194 10.1033 3.49719
2 10.4787 8.35596 9.12532
2 3.88581 3.41955 3.18752
2 3.7135 5.35029 4.78582
2 4.81332 9.13147 0.975253
2 8.45809 7.72417 2.77229
2 4.14897 11.7004 9.2611
2 11.9126 5.96708 5.95964
2 4.73387 2.43936 7.88164
2 8.32068 7.39893 7.80997
2 9.73259 9.69538 11.7686
2 9.62845 11.6634 9.12383
2 4.35658 8.21922 5.83071
2 8.05601 4.14997 11.7114
2 10.3873 6.64568 7.48338
2 9.4797 0.479483 11.3457
2 11.8361 10.8959 8.61345
2 9.06024 5.9858 9.92984
2 10.9745 1.18217 4.73961
2 11.4238 2.11139 10.7405
2 11.733 8.68186 7.08536
2 0.465098 11.0405 1.97505
2 0.795385 4.11688 8.14449
2 9.3283 3.26233 9.01404
2 2.52539 0.625297 7.31223
2 10.8157 5.97777 2.95934
2 1.54338 8.66115 8.38839
2 9.14582 5.22034 1.07741
2 9.07212 2.69245 0.591101
2 7.11793 3.91624 8.80663
2 11.4918 1.16677 7.55139
2 10.2045 7.79408 1.07624
2 9.09527 2.16658 6.92559
2 2.33598 2.18539 9.49605
2 1.4215 11.9379 3.94738
1 2.81471 7.19798 8.4865
1 3.99255 10.723 1.58702
1 5.26625 3.92231 8.33402
1 7.17534 2.03803 3.38247
1 5.6772 7.04065 9.74889
1 7.19995 10.9286 2.18245
1 11.7169 5.56312 7.56258
1 4.44608 2.43834 2.10096
1 4.48907 6.19939 5.94471
1 8.09981 4.04839 1.12737
1 11.3987 8.98975 5.43897
1 5.07212 11.4471 10.6567
1 12.0176 5.96222 4.07409
1 4.68192 2.6958 11.2981
1 7.14196 7.75767 6.66453
1 6.21623 8.98582 12.1359
1 8.58263 8.67361 4.0659
1 3.33553 1.54334 8.26221
1 2.94669 4.09617 4.42841
1 9.61309 7.01483 8.81915
1 1.04602 10.2779 3.087
1 9.56218 9.40566 0.928323
1 9.34892 1.17308 5.49816
1 0.731216 2.90586 9.46339
1 10.0971 2.07155 11.512
1 11.7475 9.05699 8.84971
1 9.71209 10.8841 10.5286
1 1.02181 11.6404 7.02721
1 9.66585 6.57084 2.01524
1 0.850727 1.63009 4.29609
1 8.10032 4.42008 9.84884
1 10.1417 1.7335 8.27947
96
 Atoms. Timestep: 20000
2 10.0153 9.06978 5.11052
2 3.34386 0.809753 11.5332
2 6.00284 5.46235 6.74233
2 3.83658 3.45826 10.9836
2 1.04728 5.59849 3.18462
2 8.17461 12.5506 3.08772
2 3.69569 8.13321 8.76545
2 4.55014 12.3644 2.6263
2 3.52934 6.86666 6.80184
2 2.0552 2.62138 11.9952
2 4.54686 4.91805 8.40876
2 8.29691 2.75343 1.36561
2 5.92679 6.88971 8.34487
2 8.51941 10.2189 1.23731
2 11.8578 8.37418 4.57369
2 4.19357 2.06892 0.597557
2 0.356768 10.3723 4.18305
2 5.48262 10.5425 11.3878
2 7.4829 7.96869 5.75157
2 4.85775 5.95823 10.3513
2 1.30097 3.27162 4.27043
2 6.12093 1.71112 2.28523
2 1.27618 6.36965 6.777
2 6.41148 10.869 2.1222
2 7.2043 8.76816 12.1246
2 2.87033 10.9267 1.88468
2 0.145151 11.0873 6.3192
2 8.60358 2.61377 4.10621
2 5.05158 8.69827 10.7708
2 7.73246 9.72736 3.84424
2 10.8328 7.71223 9.28853
2 2.95684 2.7418 2.7581
2 3.84529 5.09799 4.73425
2 4.94429 9.42647 0.965377
2 8.92465 7.14707 3.39297
2 4.14838 12.0228 9.30971
2 12.3582 5.95278 5.15163
2 4.74816 2.63757 8.8459
2 8.63563 7.0826 8.05347
2 9.23187 10.2882 11.7885
2 10.1836 11.9989 8.98612
2 4.40337 3.50606 5.93269
2 8.92488 3.78412 12.0422
2 10.783 5.91612 7.52438
2 11.5152 0.246663 11.5151
2 12.237 10.6351 8.7055
2 9.09119 5.50031 9.86899
2 10.9337 2.37898 4.53261
2 11.9585 2.81674 10.2585
2 11.0785 9.64359 7.42818
2 0.974343 10.5997 1.28973
2 11.6498 3.67 7.5241
2 9.19694 2.69658 9.22554
2 1.95341 0.775643 7.62111
2 11.1622 7.01485 2.43693
2 1.13761 8.27813 8.31861
2 10.226 4.93155 1.12092
2 11.4814 2.93771 0.44667
2 6.88141 3.45524 9.82973
2 11.5608 1.27264 8.34221
2 9.51482 7.58579 0.672231
2 8.99668 1.3885 6.72431
2 2.12282 2.38471 8.82324
2 0.671213 1.07592 2.75294
1 2.3718 7.17738 7.8925
1 4.73187 10.6089 1.982
1 5.02842 3.91289 9.85671
1 7.66126 1.99964 2.7864
1 5.15626 7.67095 9.61494
1 7.91581 10.8617 2.63889
1 0.0946599 5.07112 6.78946
1 4.37906 1.87623 2.28837
1 4.45581 5.25508 6.44225
1 9.93303 3.4782 0.525635
1 11.4384 9.80601 5.33669
1 4.37316 11.708 10.7326
1 12.4483 6.98415 3.90617
1 3.55368 2.341 11.8777
1 7.10179 6.73437 7.28487
1 5.61301 9.05493 12.4029
1 8.53782 8.53442 4.5787
1 3.57319 1.31035 8.34304
1 2.42887 4.28855 3.44905
1 9.85762 6.28647 8.64014
1 1.32714 11.2924 3.06355
1 8.693 9.13109 12.8291
1 9.54816 2.1129 5.27382
1 0.293017 2.59621 8.77382
1 12.2831 2.26771 11.7329
1 11.5385 8.97746 8.72886
1 10.3756 11.263 10.8591
1 0.52135 12.142 7.83247
1 9.89447 6.43884 1.76412
1 12.1586 2.42762 3.52014
1 8.44874 3.93614 10.3412
1 9.75303 1.08487 8.215
96
 Atoms. Timestep: 22000
2 10.7253 8.32551 4.59038
2 4.74671 1.7822 11.1622
2 5.59422 6.41123 6.33411
2 4.54417 4.17612 10.7004
2 1.17283 4.72281 4.43469
2 8.32498 10.629 5.10763
2 3.47689 8.73988 8.47607
2 4.42058 0.978044 1.87714
2 3.20677 6.55089 7.5218
2 2.33144 2.79182 11.9359
2 4.3638 4.93515 8.09008
2 8.69113 3.29427 1.75571
2 5.76282 8.21513 7.34325
2 8.5351 9.37551 2.50788
2 1.35084 7.74613 3.97327
2 4.28878 3.34725 1.35158
2 1.24187 9.7575 3.50302
2 6.17622 11.6844 11.1949
2 8.16153 7.11248 5.12994
2 4.84231 6.6889 9.52079
2 11.9096 2.06592 5.40767
2 6.15438 2.93727 3.32215
2 0.916777 6.748 7.20204
2 6.02945 10.5841 3.44309
2 7.81882 10.0098 11.8896
2 3.17218 10.3869 2.7979
2 11.7974 10.5796 6.09336
2 8.05568 1.3862 4.21444
2 6.12742 8.83721 10.1537
2 6.73529 8.44074 4.85557
2 10.5045 7.80143 9.61007
2 3.28166 3.23066 4.16175
2 3.06418 3.96618 6.25053
2 5.32793 9.86039 1.14171
2 9.59758 6.23458 2.924
2 4.98022 1.60674 8.38958
2 10.6988 6.01664 5.18917
2 2.56151 1.96463 6.68298
2 7.74672 7.50332 7.88291
2 9.6919 10.6398 11.7943
2 9.07916 11.673 9.51341
2 3.57669 5.06573 4.66132
2 8.59729 3.79777 11.2763
2 9.96454 6.06046 7.25565
2 11.5231 1.33644 11.1648
2 11.389 10.524 9.43084
2 8.50394 5.98967 9.6945
2 9.88922 11.7991 5.65625
2 0.898694 2.59973 8.82453
2 2.06765 8.44511 6.03676
2 1.28833 11.784 1.37496
2 11.1156 4.13464 7.69795
2 9.20097 3.01394 8.7027
2 2.37198 11.3663 7.51067
2 11.6536 6.3427 2.0347
2 1.4108 8.50841 9.00943
2 10.6506 4.93911 0.823594
2 10.96 2.47257 1.06719
2 6.69541 4.85163 10.1502
2 11.4667 1.25882 7.43722
2 9.91963 8.16028 12.5586
2 7.98914 1.49416 7.17473
2 2.03514 1.54783 8.70006
2 11.7581 11.5779 3.50131
1 2.18979 8.06127 7.71778
1 4.66521 10.6626 2.39801
1 5.16924 5.32159 9.45264
1 7.76011 2.37443 2.53173
1 5.2084 8.31207 8.88191
1 7.45302 9.83144 3.91174
1 11.4492 5.35732 6.54823
1 4.57371 2.75713 2.86313
1 3.87747 5.45898 6.41282
1 9.95871 3.66567 12.3752
1 0.894647 9.00964 5.0397
1 6.01408 1.52931 9.92283
1 1.08774 6.05967 3.57657
1 4.03545 3.13997 11.6772
1 6.8519 7.44838 6.21952
1 6.23367 9.83355 11.6252
1 9.45157 7.22336 4.29364
1 3.53582 1.18693 7.62493
1 1.92391 3.17745 5.14841
1 9.34446 7.08076 8.55175
1 1.64 11.0132 2.54065
1 9.29666 9.52996 0.856114
1 8.25036 0.69952 5.71081
1 10.8631 2.61023 8.19724
1 0.990157 1.75219 0.537426
1 11.8628 8.7179 10.1174
1 10.5279 11.6775 10.5107
1 0.707473 11.1163 7.64309
1 10.1768 6.63399 1.20155
1 11.1425 0.668582 4.89677
1 8.14319 4.34252 9.78899
1 8.1614 1.53119 8.72848
96
 Atoms. Timestep: 24000
2 10.75 8.14283 5.3475
2 4.7069 2.68194 10.2371
2 6.15977 6.03007 6.19721
2 3.25491 4.78888 9.8631