96
 Atoms. Timestep: 0
2 0 7.95642 4.74695
2 4.63304 0 11.358
2 0 4.63304 4.74695
2 7.95642 0 11.358
2 0 4.63304 8.47514
2 7.95642 0 1.8641
2 0 7.95642 8.47514
2 4.63304 0 1.8641
2 10.7421 8.43088 6.61105
2 4.15858 10.7421 0
2 1.84736 4.15858 6.61105
2 8.43088 1.84736 0
2 1.84736 8.43088 6.61105
2 8.43088 10.7421 0
2 10.7421 4.15858 6.61105
2 4.15858 1.84736 0
2 10.5201 6.29473 5.04003
2 6.29473 10.5201 11.6511
2 2.06934 6.29473 5.04003
2 6.29473 2.06934 11.6511
2 2.06934 6.29473 8.18207
2 6.29473 2.06934 1.57102
2 10.5201 6.29473 8.18207
2 6.29473 10.5201 1.57102
2 10.1594 8.65935 9.20274
2 3.93011 10.1594 2.59169
2 2.43004 3.93011 9.20274
2 8.65935 2.43004 2.59169
2 2.43004 8.65935 9.20274
2 8.65935 10.1594 2.59169
2 10.1594 3.93011 9.20274
2 3.93011 2.43004 2.59169
2 2.43004 3.93011 4.01936
2 8.65935 2.43004 10.6304
2 10.1594 8.65935 4.01936
2 3.93011 10.1594 10.6304
2 10.1594 3.93011 4.01936
2 3.93011 2.43004 10.6304
2 2.43004 8.65935 4.01936
2 8.65935 10.1594 10.6304
2 0 10.703 0
2 1.88643 0 6.61105
2 0 1.88643 0
2 10.703 0 6.61105
2 0 0 1.872
2 0 0 8.48305
2 0 0 11.3501
2 0 0 4.73905
2 11.2706 2.31295 2.18973
2 10.2765 11.2706 8.80078
2 1.31887 10.2765 2.18973
2 2.31295 1.31887 8.80078
2 1.31887 2.31295 2.18973
2 2.31295 11.2706 8.80078
2 11.2706 10.2765 2.18973
2 10.2765 1.31887 8.80078
2 1.31887 10.2765 11.0324
2 2.31295 1.31887 4.42131
2 11.2706 2.31295 11.0324
2 10.2765 11.2706 4.42131
2 11.2706 10.2765 11.0324
2 10.2765 1.31887 4.42131
2 1.31887 2.31295 11.0324
2 2.31295 11.2706 4.42131
1 11.0086 7.83654 8.10972
1 4.75292 11.0086 1.49867
1 1.5809 4.75292 8.10972
1 7.83654 1.5809 1.49867
1 1.5809 7.83654 8.10972
1 7.83654 11.0086 1.49867
1 11.0086 4.75292 8.10972
1 4.75292 1.5809 1.49867
1 1.5809 4.75292 5.11238
1 7.83654 1.5809 11.7234
1 11.0086 7.83654 5.11238
1 4.75292 11.0086 11.7234
1 11.0086 4.75292 5.11238
1 4.75292 1.5809 11.7234
1 1.5809 7.83654 5.11238
1 7.83654 11.0086 11.7234
1 10.1088 10.1088 3.30552
1 2.48067 10.1088 9.91657
1 2.48067 2.48067 3.30552
1 10.1088 2.48067 9.91657
1 2.48067 10.1088 3.30552
1 10.1088 10.1088 9.91657
1 10.1088 2.48067 3.30552
1 2.48067 2.48067 9.91657
1 0 1.60471 1.57853
1 10.9848 0 8.18958
1 0 10.9848 1.57853
1 1.60471 0 8.18958
1 0 10.9848 11.6436
1 1.60471 0 5.03252
1 0 1.60471 11.6436
1 10.9848 0 5.03252
96
 Atoms. Timestep: 2000
2 12.7117 7.78237 5.23225
2 4.3148 0.355244 12.4268
2 12.6801 4.41854 4.62105
2 7.64071 11.7315 11.4885
2 11.8279 4.31485 8.24467
2 8.3219 0.365248 0.32539
2 12.8641 7.09193 7.42845
2 4.45568 0.223233 1.87117
2 10.0957 8.21276 6.19822
2 4.24562 11.2044 0.290584
2 0.876476 4.37692 6.9582
2 8.08314 1.9278 12.476
2 1.87398 8.26778 7.51382
2 7.86679 9.59043 0.201701
2 10.221 4.8325 6.0481
2 4.08978 2.05133 -0.0900493
2 10.4595 6.42303 3.82163
2 5.58045 10.5836 11.9063
2 1.79512 6.50109 5.88292
2 6.08988 0.950153 11.1011
2 2.51081 6.54843 9.9957
2 6.37168 1.46611 1.61838
2 10.106 6.27083 8.32025
2 6.40598 10.6648 1.2468
2 10.9254 8.26594 9.1277
2 4.23304 10.858 2.74993
2 1.9324 3.00768 8.47525
2 8.60861 2.35811 2.35372
2 1.31888 8.72586 9.57049
2 9.65896 10.694 1.55074
2 9.27017 2.88724 8.08387
2 4.18577 2.86922 2.49757
2 2.56249 4.64699 4.26464
2 8.43286 1.29097 9.97094
2 11.0253 8.73436 3.06226
2 3.1429 10.8175 10.7525
2 10.5328 3.72712 3.66087
2 3.29935 2.55481 11.0364
2 3.1169 9.79562 5.28578
2 8.89802 9.98845 11.3744
2 12.8563 11.4248 0.43501
2 1.47598 0.814586 6.63752
2 0.290977 2.10864 0.0465406
2 11.2138 12.0713 6.50889
2 1.39215 0.159142 2.00705
2 0.391967 12.159 8.5073
2 0.526654 -0.0155159 11.9583
2 12.5781 0.20659 4.84715
2 11.8656 1.72227 2.88383
2 10.8747 10.8558 8.97715
2 2.12927 11.059 2.46466
2 1.9617 0.231132 9.34663
2 1.6162 2.76632 2.35857
2 2.45789 11.1513 8.81723
2 12.6369 10.558 2.16706
2 11.2805 0.882251 8.78341
2 0.611246 10.7822 10.8198
2 2.60728 1.71253 4.2588
2 11.3223 2.67444 11.4456
2 10.5278 11.1853 4.16428
2 11.2466 10.5986 11.5032
2 10.3477 1.33595 4.42143
2 1.00971 1.95505 11.0505
2 2.51445 12.23 4.6561
1 10.9449 7.61275 7.72368
1 5.31041 11.7188 1.62223
1 0.392557 3.54742 8.16457
1 7.78231 2.06306 0.940345
1 1.48998 7.12506 8.63684
1 8.08648 10.4123 1.52835
1 10.148 4.54414 7.67248
1 4.8304 1.74967 1.74967
1 1.21573 4.59662 5.29618
1 7.59356 0.55881 11.1421
1 10.7948 8.07892 4.5225
1 4.00484 11.5258 12.168
1 10.9563 5.13149 4.51489
1 4.53353 1.87497 11.7026
1 1.54805 8.37741 5.81325
1 7.13177 10.2488 11.8808
1 10.7744 10.3572 2.72071
1 1.76531 10.329 10.0082
1 2.73823 3.15815 3.4551
1 9.53445 1.43198 8.64799
1 3.18944 10.9927 3.84928
1 10.2629 9.77253 10.2827
1 10.2855 2.19319 2.9486
1 2.32686 2.08304 9.82431
1 0.521233 1.71195 1.74093
1 11.531 12.2855 8.21484
1 1.21082 11.6136 1.46094
1 1.94065 12.4719 7.89261
1 12.5795 11.1993 12.2049
1 1.27801 0.814683 5.04
1 12.2043 1.47469 12.0064
1 11.0259 -0.130766 5.06963
96
 Atoms. Timestep: 4000
2 -0.010615 7.18427 4.14759
2 4.07543 0.07217 12.0557
2 12.7628 4.5837 4.32932
2 7.52932 0.978055 12.0902
2 12.9749 4.79778 8.40105
2 8.43557 -0.0673371 2.05484
2 -0.564937 7.66407 8.84938
2 4.7801 12.7873 1.92882
2 11.4618 7.67657 6.25641
2 4.16972 11.015 13.2464
2 0.932684 4.19251 6.14423
2 7.67649 2.12075 0.119465
2 1.67891 8.09984 6.30302
2 7.74527 12.3809 13.7533
2 10.9575 4.76506 6.6211
2 3.34304 2.91102 13.2679
2 11.3559 6.1922 4.19336
2 5.79726 12.7803 11.2587
2 1.74202 5.43329 4.1386
2 5.94681 2.49517 12.2339
2 1.38617 6.16591 8.16457
2 6.7281 1.23083 1.76403
2 10.8336 5.64494 8.96253
2 6.30536 11.2956 1.64345
2 10.428 8.26088 9.76829
2 3.85293 10.45 1.97261
2 1.71945 3.39715 8.74333
2 9.43091 2.37244 2.69213
2 2.35056 9.16464 8.90279
2 9.26443 10.6096 1.52744
2 10.0309 3.89254 9.57691
2 3.85351 1.76282 2.78625
2 1.9211 2.75939 3.83991
2 9.02611 2.84537 11.6568
2 10.9185 9.41995 3.98152
2 3.13953 10.7485 10.9899
2 10.6012 3.53862 4.06966
2 3.47259 2.16312 10.7239
2 2.58355 8.40177 3.91447
2 7.4172 11.3564 10.8787
2 12.8103 11.3134 -0.527615
2 1.33526 11.7164 6.57912
2 12.9226 2.3067 -0.361768
2 11.7429 12.9559 6.92109
2 12.9026 12.9314 1.38361
2 -0.000393083 12.3254 7.94096
2 0.0700076 0.173119 11.8839
2 -0.0994353 12.9525 4.92583
2 11.7669 1.98383 2.36368
2 11.4662 10.8403 9.49594
2 1.23547 10.0301 1.65488
2 2.28411 0.511621 8.7391
2 0.945863 0.905093 2.03226
2 2.16395 11.429 8.91697
2 12.1019 10.5811 1.36778
2 11.1728 0.222292 9.6645
2 0.284045 11.3602 10.7539
2 2.2066 0.063851 4.52079
2 11.5221 2.44414 11.9072
2 11.1266 11.7507 3.75783
2 8.36713 10.7472 9.75133
2 11.1 1.00199 5.13417
2 0.673913 2.09152 10.8687
2 1.81634 10.8923 3.8276
1 11.2583 7.30702 8.21253
1 4.65838 11.235 0.977791
1 1.02046 4.6509 7.9213
1 8.3137 1.3802 1.42434
1 1.2978 7.96588 8.08188
1 8.0066 11.7013 1.28241
1 11.1965 4.23629 8.30004
1 5.41444 0.700769 2.48675
1 0.832309 4.0678 4.59809
1 7.63009 2.48311 12.5386
1 11.9289 7.92577 4.47969
1 4.34025 12.004 11.4602
1 11.1203 4.84378 4.75283
1 4.34168 1.93393 12.0821
1 1.84064 7.01443 4.75576
1 7.38121 12.4274 12.0184
1 10.7956 10.6429 2.47364
1 1.60407 10.276 10.2513
1 2.22599 1.1954 3.19628
1 10.3266 3.6696 11.3991
1 2.20828 9.882 2.89084
1 9.97687 9.97273 9.61447
1 10.9395 2.10465 3.83817
1 1.87315 2.13401 9.69733
1 12.9343 1.47315 1.22013
1 11.8423 12.3808 8.88552
1 0.0314722 11.2427 1.23763
1 1.63584 12.5792 7.92893
1 -0.537257 11.9389 12.063
1 1.65275 12.1126 4.88772
1 -0.145724 1.76748 12.1825
1 11.7182 12.5585 5.35568
96
 Atoms. Timestep: 6000
2 12.2994 8.06699 5.07015
2 4.99588 12.5314 11.0658
2 -0.225917 4.73915 5.22379
2 8.51062 -0.20079 11.8009
2 -0.0742129 5.51543 8.42356
2 7.69903 12.8096 1.73516
2 0.0699675 7.91065 8.10556
2 3.6396 12.787 0.867571
2 10.4478 8.42226 7.00003
2 4.60885 10.3764 12.7553
2 1.72234 4.77804 6.85774
2 8.20328 1.89024 13.3385
2 1.95627 7.74339 5.98017
2 7.76209 10.9219 0.194966
2 11.0492 4.59941 7.19436
2 5.33106 0.202726 8.43928
2 10.7711 6.19251 5.12256
2 6.61099 11.1922 11.3885
2 1.09093 6.03433 4.14928
2 7.05265 1.29989 10.6861
2 1.84788 6.19585 8.96159
2 5.98641 1.61158 1.37918
2 10.6238 6.53181 8.71573
2 5.64961 10.6673 1.55586
2 11.3555 9.27042 9.4274
2 2.7853 10.1639 1.38797
2 2.16753 3.64358 9.34582
2 9.04242 2.08306 2.16234
2 1.8932 8.94264 9.46403
2 8.24988 11.0894 3.15979
2 11.7012 3.55117 9.4688
2 3.72876 1.58458 2.45666
2 2.27639 3.5781 4.53134
2 9.49651 1.95186 10.6715
2 10.3429 9.12265 4.25999
2 4.07988 10.0839 10.0007
2 10.3833 3.40003 4.7607
2 4.52049 1.88789 10.6585
2 1.63925 9.05791 3.68805
2 9.24169 10.7459 11.5205
2 12.3423 11.1862 -0.264695
2 1.67454 12.1945 7.14667
2 -0.223122 2.16844 0.0967198
2 10.8946 0.276843 6.72641
2 12.5512 12.8154 1.34965
2 -0.0877648 12.7716 8.95464
2 -0.271571 0.198495 11.5256
2 -0.110077 0.0661347 4.48487
2 11.1264 1.7306 1.87057
2 10.5118 11.8488 9.24529
2 -0.258159 10.1423 2.03579
2 2.24293 0.834461 9.48244
2 0.857737 1.94312 2.0265
2 1.54306 11.4412 9.25225
2 10.569 10.3976 1.90719
2 11.5757 1.55833 9.41882
2 1.72685 10.6811 11.4901
2 2.22334 1.12065 4.67759
2 12.0354 2.54162 11.5475
2 10.6386 11.5031 3.9068
2 12.0602 10.7249 10.6643
2 10.5099 1.05156 4.02889
2 1.77521 1.91241 11.6774
2 1.15648 11.2981 4.37226
1 11.1948 8.09804 8.35108
1 4.04013 11.0263 0.54268
1 1.63504 4.7154 8.53233
1 7.85526 1.51384 1.06289
1 1.48721 7.70654 8.68773
1 7.20669 11.1836 1.78491
1 11.2185 4.86055 8.74833
1 4.42617 1.05488 1.23634
1 1.4407 4.74914 5.25639
1 8.46966 1.22308 11.6244
1 10.5601 8.00309 5.44934
1 5.02909 10.9891 10.9734
1 11.3483 4.59917 5.56021
1 5.71962 0.733874 10.3871
1 0.840128 7.76974 4.55054
1 7.86542 11.4885 12.4277
1 9.74829 10.2445 3.37724
1 2.48723 10.3923 9.93413
1 2.37109 2.14744 3.20728
1 10.904 2.55912 10.5885
1 1.44833 10.2762 2.67101
1 10.432 10.6409 10.1024
1 10.3392 2.43046 3.2891
1 2.78961 2.20445 10.3595
1 12.6136 1.30128 1.61032
1 11.2942 0.0336179 8.30887
1 11.7722 11.0623 1.44789
1 1.4192 12.8491 8.51674
1 -0.109548 11.6292 12.0542
1 1.55459 12.6474 5.32435
1 0.346488 1.64996 12.1926
1 11.1846 -0.0383129 4.82263
96
 Atoms. Timestep: 8000
2 12.0096 7.73416 4.35362
2 4.42769 0.617234 11.35
2 -0.170878 4.20084 4.90937
2 8.54697 12.7653 11.0496
2 12.5933 4.72412 8.70677
2 7.71782 12.2781 1.41584
2 0.0966811 8.54182 9.20498
2 5.43681 -0.0574402 1.04121
2 11.6617 8.24931 6.79098
2 4.24867 11.3683 13.05
2 1.36565 3.99955 6.99372
2 8.05672 0.758925 -0.0801909
2 2.55484 7.72308 7.37937
2 7.9575 10.5039 12.7006
2 10.995 4.68513 6.50387
2 5.36972 2.76429 9.76101
2 10.4215 6.05457 4.87822
2 5.97508 11.4137 10.8948
2 1.52249 5.75244 5.50811
2 6.60107 1.38164 11.5016
2 0.879071 6.23847 9.14009
2 6.30842 1.70955 1.58249
2 11.0403 6.83877 8.66571
2 6.04992 10.0253 0.76015
2 10.4883 9.34531 9.61911
2 4.09142 10.33 2.74902
2 2.57175 4.05856 9.47528
2 8.67894 1.1629 3.05169
2 2.39997 9.12958 9.75796
2 8.46341 10.2474 2.31251
2 10.6319 3.88462 8.84329
2 3.78825 1.99949 2.53978
2 2.13717 3.10049 4.44636
2 9.18039 2.35034 10.5984
2 9.8543 8.77874 4.13108
2 3.14257 11.5102 10.7217
2 10.3546 3.08862 4.0603
2 3.76481 2.80939 11.3193
2 2.08267 8.56408 4.01611
2 8.78311 10.4206 10.4011
2 12.6091 10.9515 0.441763
2 1.95077 -0.0164494 6.80156
2 -0.0651902 2.00749 0.10393
2 10.9397 11.6542 6.35127
2 0.44003 0.0674808 2.05913
2 12.2997 0.395526 7.55738
2 0.281499 -0.0172729 12.3385
2 0.207982 11.8945 4.75989
2 11.2777 1.83558 2.23472
2 10.8031 11.6472 8.83947
2 1.13186 10.1726 2.4251
2 1.96476 1.49563 9.34518
2 1.14491 2.17765 2.47045
2 1.56843 11.413 8.82444
2 11.2282 10.602 1.8172
2 10.5106 1.17774 8.58676
2 0.608607 11.3004 11.0722
2 2.54132 0.670033 4.53539
2 11.2504 1.66328 10.7549
2 10.6019 10.9483 3.93384
2 11.0948 11.5627 11.4873
2 11.4595 0.209927 3.59321
2 0.788582 2.72691 11.0551
2 2.27166 11.0953 4.9405
1 11.546 8.60075 8.56863
1 4.69066 11.1399 1.40837
1 1.24408 4.47367 8.43762
1 7.69984 0.8516 1.52521
1 1.76869 7.78719 8.96535
1 7.73918 10.5737 0.882485
1 11.2344 5.25378 8.18505
1 4.62581 1.7756 1.06215
1 1.30005 4.18846 5.46151
1 8.5523 1.29008 11.8119
1 10.8123 7.67621 5.41602
1 4.38498 11.8849 11.4822
1 11.2375 4.62189 4.79386
1 5.25383 2.00479 11.287
1 0.607872 7.32815 4.48191
1 7.75154 11.3089 11.3603
1 10.0781 9.85595 2.89621
1 1.92352 10.5512 10.0629
1 2.4036 1.94232 3.34727
1 10.3508 2.43218 9.63993
1 2.63122 10.3062 3.56448
1 10.4116 10.8824 10.122
1 10.2292 1.6183 3.41574
1 2.24303 2.88346 10.5088
1 -0.0311054 1.61338 1.72674
1 10.6101 12.7567 7.35182
1 -0.115552 11.2523 1.93096
1 1.28322 0.303688 8.11575
1 12.4215 11.5726 12.1441
1 1.54981 12.526 5.21932
1 12.6844 1.72562 12.0619
1 11.6972 12.0971 4.69966
96
 Atoms. Timestep: 10000
2 -0.0162956 8.34069 4.63495
2 4.25995 12.7002 11.609
2 12.454 5.40393 4.7062
2 6.93806 12.3786 12.0448
2 12.5089 4.24646 8.13616
2 7.73256 0.0995507 1.94921
2 12.4339 7.8059 7.9185
2 4.1737 0.765944 1.26458
2 11.1401 8.69672 6.6125
2 3.88211 11.3432 -0.10981
2 1.67655 5.23572 6.09295
2 7.88169 1.225 13.0223
2 2.30395 8.26974 6.67971
2 7.83748 10.4053 0.508765
2 11.1757 5.38277 7.0779
2 6.32336 1.43968 10.8605
2 10.5476 6.80262 5.23798
2 6.33778 9.99291 11.9164
2 2.05434 6.50408 4.60017
2 8.54329 12.5232 10.8106
2 1.09302 6.35902 8.15103
2 6.45848 2.73583 0.837473
2 10.5108 6.60905 8.92208
2 6.00248 11.3722 2.27144
2 10.1296 9.23661 8.96026
2 3.72288 10.6771 2.13495
2 2.02031 3.8669 7.55926
2 8.78601 2.61838 2.52518
2 2.03238 8.28757 9.21328
2 8.29251 10.7156 3.31585
2 10.2536 4.06777 9.69607
2 3.52771 3.23148 2.46171
2 1.30797 3.41717 4.3046
2 8.50939 2.1065 11.0886
2 10.4443 9.26667 4.09067
2 3.44222 9.76048 11.1526
2 10.4807 3.86532 5.07963
2 4.0451 2.27971 9.28702
2 2.37405 8.34593 3.81485
2 8.91238 9.88778 11.4273
2 12.4661 9.74244 0.318681
2 2.37653 12.3048 7.32088
2 0.991094 1.41923 12.9623
2 11.0986 0.215626 6.71737
2 0.206681 12.34 0.54395
2 12.1822 12.1602 8.78472
2 1.12425 0.351281 10.5297
2 0.289217 0.269041 5.01844
2 11.8938 1.63905 1.33338
2 10.2293 11.3461 8.89377
2 0.994475 10.1208 2.18404
2 2.11289 1.1119 8.53799
2 1.00493 1.97841 2.47408
2 1.75703 11.1179 9.83607
2 11.1569 10.9656 2.19248
2 10.5457 0.9556 9.47509
2 1.29634 8.63008 11.6034
2 2.50347 1.20052 4.8375
2 11.681 2.87429 11.1555
2 10.8649 11.6801 4.21335
2 11.5204 9.7773 11.4029
2 10.2392 1.54925 4.8422
2 1.60987 2.55011 10.088
2 2.38352 11.1832 4.09295
1 10.5493 8.11942 8.20232
1 4.62785 11.9507 1.47485
1 0.901221 4.92898 7.38214
1 7.7626 1.51738 1.28287
1 1.37442 7.93219 7.95904
1 7.52093 11.3072 2.02585
1 11.1756 5.12062 8.71076
1 4.70475 2.31548 1.53018
1 1.21324 5.13041 4.58337
1 7.57843 0.806331 11.4299
1 11.3133 8.35065 5.05752
1 4.62126 10.9289 11.8354
1 11.1563 5.15653 5.54812
1 4.82714 1.30802 10.3235
1 1.63248 8.08676 5.15333
1 7.76872 10.5915 12.3981
1 9.94933 10.6876 3.53437
1 2.12324 9.49799 10.3466
1 2.27487 2.39306 3.68947
1 10.0752 2.67043 10.5917
1 2.62598 10.0474 2.93868
1 10.0384 10.1156 10.3698
1 10.008 2.70005 3.67301
1 2.63384 2.55704 8.84043
1 0.712583 0.88279 1.23757
1 10.7775 -0.00602202 8.24029
1 12.6463 10.8698 1.36896
1 1.3662 12.2767 8.99929
1 12.5851 8.56423 12.1105
1 1.88438 12.6303 5.57004
1 0.508266 1.77815 11.1957
1 11.2413 0.149286 5.02166
96
 Atoms. Timestep: 12000
2 -0.181585 8.00462 4.99574
2 4.38628 11.8204 11.4556
2 0.520267 5.04718 4.69062
2 8.16882 12.5939 11.0155
2 0.124445 4.20411 8.50175
2 8.28403 -0.233576 1.08462
2 12.6571 7.20863 8.04989
2 5.02257 12.6451 1.46962
2 11.052 7.67964 6.62186
2 4.72861 10.1219 13.1387
2 1.40237 4.19969 6.6862
2 7.75959 1.81003 12.9738
2 1.36126 8.58361 6.82377
2 8.49408 11.2806 13.2729
2 11.918 3.45256 6.6031
2 6.38888 0.160909 12.0439
2 10.8508 6.10373 4.90751
2 6.31384 10.4368 11.2293
2 2.22538 6.36488 5.06186
2 8.78182 2.59588 10.7466
2 1.80427 6.62699 8.44025
2 5.98193 1.8658 1.00746
2 10.6143 5.39035 8.18475
2 6.71391 11.1869 1.65803
2 10.0995 8.47686 8.84457
2 3.73951 10.3655 2.6397
2 2.02674 4.01787 9.55314
2 9.09492 1.79387 1.87349
2 1.11372 8.97475 9.32984
2 9.25136 10.411 2.32457
2 10.1197 4.28877 9.9177
2 3.1902 1.82027 1.70277
2 2.63895 3.84515 3.78066
2 8.26647 5.2937 10.0491
2 10.4629 9.07559 4.03711
2 3.15813 10.2039 10.8928
2 10.6258 3.472 4.08039
2 3.24069 1.53268 11.1367
2 2.0796 9.52319 4.91697
2 8.46596 10.042 10.5117
2 -0.157647 10.2581 0.255453
2 1.1905 -0.543609 6.10323
2 0.212873 1.12849 13.2964
2 11.084 0.321605 7.54274
2 0.062349 0.0114392 1.94389
2 -0.123702 -0.314735 8.52
2 12.4702 12.2052 11.6667
2 12.53 0.744695 5.24967
2 11.0453 1.88809 1.77374
2 10.2956 11.8417 9.58756
2 1.21895 10.4262 2.66222
2 2.34494 1.54481 8.22685
2 0.74555 2.70774 1.97925
2 1.9155 11.1641 8.25473
2 11.8896 11.3552 2.83704
2 11.5809 0.893334 10.4441
2 1.34373 10.8372 11.4257
2 1.59664 1.80952 3.88299
2 9.36551 4.76773 12.5616
2 9.96874 11.7192 5.05154
2 11.2708 9.96836 11.3653
2 9.65001 0.820925 4.54681
2 1.1287 1.60675 10.7124
2 1.82834 12.2616 3.77967
1 10.7313 7.05114 8.10899
1 5.09096 10.7461 1.14979
1 1.49857 4.86262 8.26192
1 7.69889 1.26867 0.921529
1 1.17146 7.97356 8.16807
1 8.36124 11.1975 1.13333
1 11.5149 4.25915 8.35412
1 4.60764 0.983681 0.838502
1 1.93027 4.6617 5.13261
1 8.11377 1.22206 11.5021
1 11.201 7.73362 5.08205
1 4.904 10.3162 11.3551
1 11.6269 4.49041 4.87199
1 4.54309 0.447804 11.4046
1 1.61133 7.95017 5.15185
1 7.87048 11.0782 11.6533
1 10.4505 10.7548 3.84223
1 1.81989 10.3457 9.75951
1 2.35588 2.63957 2.63365
1 8.99248 4.20859 11.1486
1 2.52756 10.8738 3.68116
1 10.186 10.0573 10.1262
1 10.0405 2.08295 3.36436
1 2.38769 2.54873 10.0631
1 12.7964 1.47031 1.1807
1 11.265 -0.0560234 8.99934
1 0.0557914 11.2482 1.73632
1 1.39676 -0.0364248 7.80805
1 -0.435542 10.4491 12.1803
1 1.04739 0.3587 4.74118
1 12.9453 0.785519 11.5776
1 10.8186 0.411792 5.89704
96
 Atoms. Timestep: 14000
2 -0.0140645 8.25568 4.10818
2 4.47068 12.7304 10.7862
2 12.6771 4.23754 5.17936
2 7.77795 0.0634416 12.2985
2 12.3025 4.90966 8.40967
2 7.44248 12.8466 0.992059
2 0.00423744 7.9796 8.10159
2 4.72613 12.7674 1.61741
2 11.328 8.12741 6.40264
2 4.3061 10.9695 13.3438
2 1.31732 4.28278 6.81729
2 7.93209 1.857 0.133979
2 1.90221 8.09572 6.08785
2 8.46419 10.9354 0.15335
2 10.6017 4.46601 6.36056
2 6.49259 1.29818 10.8849
2 11.8326 6.08918 4.68769
2 6.44276 11.2298 12.0455
2 1.10569 6.26704 4.22785
2 9.13764 2.60691 11.0095
2 1.46728 6.00206 8.68252
2 5.96644 1.74639 2.08169
2 10.6263 6.68238 8.40212
2 6.19171 10.5696 1.56641
2 11.2631 9.60135 9.33895
2 3.31648 10.4674 1.95539
2 1.40229 3.46286 9.70203
2 8.13004 1.36621 3.01762
2 2.02081 8.36804 8.96484
2 8.89812 11.4599 2.69771
2 9.77053 4.083 8.50491
2 2.34568 1.95302 2.09674
2 1.79144 3.35002 4.50824
2 11.0271 1.43031 9.37389
2 10.4004 9.14706 4.00422
2 3.83047 10.2195 10.3019
2 9.95931 3.44171 3.98472
2 3.84117 2.26127 10.1943
2 2.16391 8.97325 3.5171
2 9.14783 10.8845 10.9568
2 0.10363 10.8151 0.10292
2 1.97888 0.104841 6.55842
2 12.4349 1.82748 0.113406
2 11.2055 0.713649 7.39231
2 12.5372 -0.130807 2.17364
2 -0.109443 12.5871 8.13402
2 0.762033 12.2911 11.8068
2 12.7693 12.5648 4.79782
2 10.7143 2.08943 2.6201
2 10.7091 11.8777 8.93734
2 0.972155 11.1422 2.83423
2 1.98642 1.18755 8.8327
2 0.112082 2.40125 2.49844
2 2.07467 11.4352 8.8465
2 11.7433 10.4608 2.61776
2 12.2792 0.529924 10.6535
2 1.58765 9.87764 11.4714
2 1.70797 0.642228 4.10788
2 8.0033 2.53613 8.83694
2 10.9513 11.3761 4.90183
2 11.8333 10.6956 11.3692
2 10.186 0.563093 4.89076
2 1.04875 2.11939 11.3249
2 2.42335 11.2998 4.80806
1 11.5688 8.19129 8.30081
1 4.79178 11.0686 1.11224
1 0.873457 4.46371 8.52754
1 7.36881 1.32858 1.66009
1 1.72465 7.40389 7.78519
1 7.81875 11.2271 1.50767
1 10.9976 5.18505 7.65576
1 4.23133 1.57974 1.59256
1 1.09839 4.84891 5.25094
1 8.16365 1.60541 12.0454
1 11.5987 8.00996 4.80893
1 4.90267 11.1 11.546
1 10.9939 4.43932 4.7524
1 4.96724 1.1341 10.2808
1 1.8258 7.78048 4.42016
1 8.11389 11.5405 11.9723
1 10.2737 10.6042 3.48658
1 2.16553 10.1321 9.84094
1 1.35817 1.95664 3.30775
1 9.6427 2.59742 9.39905
1 2.4614 10.4996 3.31202
1 10.7144 10.6822 10.1339
1 9.57554 1.73497 3.74302
1 2.20777 2.44122 10.2984
1 11.9475 1.58272 1.7237
1 11.6676 0.117147 8.81341
1 12.7849 11.2664 1.59946
1 1.5945 12.7998 8.13471
1 0.376645 10.579 12.1905
1 1.44277 12.5748 5.2989
1 0.294218 0.896269 12.1521
1 11.3364 -0.285784 5.64058
96
 Atoms. Timestep: 16000
2 -0.183811 8.76412 4.79103
2 4.42269 -0.135056 11.7132
2 0.126167 4.76107 4.64531
2 7.81254 12.6262 11.4168
2 12.7595 4.35397 7.77638
2 8.35947 12.6417 1.37839
2 12.7534 7.51988 8.89601
2 4.44388 1.68272 13.3395
2 11.5408 7.54081 6.74159
2 4.33789 10.3394 -0.179854
2 1.41539 4.24732 6.61496
2 8.37813 1.37173 13.4508
2 1.46158 8.18865 6.50942
2 7.86623 10.7596 -0.194334
2 10.9756 4.66863 6.13959
2 6.27199 1.90848 11.968
2 11.2071 6.64413 4.38338
2 6.17232 10.9309 11.6013
2 1.53289 6.50567 5.12898
2 9.07813 1.56478 10.5887
2 1.73379 6.104 8.45401
2 6.61355 1.47312 1.53528
2 10.42 6.33865 7.96605
2 6.37837 10.2787 1.63733
2 9.9475 8.58814 9.34956
2 3.84972 10.6219 2.63352
2 1.2059 3.68831 9.33571
2 9.1028 2.21985 2.1185
2 1.80992 9.23155 9.22428
2 9.09433 10.1759 1.76112
2 10.3158 3.12023 8.53047
2 3.77848 1.58633 2.16634
2 2.2384 3.81524 3.95285
2 10.8413 1.23709 8.66784
2 10.3516 9.18451 4.56865
2 3.25554 10.9319 11.507
2 11.7677 3.65294 3.75834
2 3.02725 2.61637 11.6036
2 2.17869 9.59656 4.51931
2 8.43747 10.0278 10.3446
2 12.2379 10.8189 -0.127868
2 1.77824 -0.212728 7.11743
2 12.2702 0.957074 0.0693673
2 11.0288 12.7591 6.55772
2 12.4181 12.7005 1.86165
2 0.042202 -0.232877 8.1796
2 12.4019 12.2396 11.6672
2 -0.0536057 -0.138084 5.52704
2 11.4721 2.16434 2.09004
2 10.5159 11.4145 8.92759
2 1.18336 10.947 2.16645
2 2.06157 1.25376 9.53614
2 1.2239 2.06755 2.04173
2 1.87612 12.1975 9.60044
2 11.2918 10.2741 2.17005
2 11.2258 1.79961 11.4277
2 0.806021 10.3855 11.3565
2 1.8111 1.43961 4.71208
2 9.50742 3.58573 10.6895
2 10.7637 11.2853 4.15818
2 10.8411 10.7377 10.9606
2 10.4656 0.823676 3.97773
2 0.657324 1.7172 11.4285
2 1.76367 11.7713 4.52825
1 11.0986 7.6535 8.43857
1 4.85949 10.4989 1.24182
1 1.14807 4.67004 8.26633
1 8.16283 1.20681 1.39109
1 1.38655 7.67774 8.16269
1 7.88606 11.0941 1.3532
1 11.2233 4.56344 7.90421
1 4.91748 1.90711 0.976866
1 1.7782 4.70169 5.18578
1 8.039 1.27981 11.7646
1 11.5544 7.98561 5.06787
1 4.72885 10.9812 12.1401
1 11.5484 4.98733 4.73081
1 4.58468 1.41654 11.8082
1 1.32772 8.29022 4.82972
1 7.51542 11.055 11.9257
1 10.1216 10.1969 3.13383
1 2.1071 10.7821 10.1556
1 2.29128 2.17271 3.18778
1 10.444 2.30476 9.86236
1 2.38494 10.804 3.3774
1 9.94088 10.0758 9.77373
1 10.3254 2.40298 3.24364
1 1.66864 2.49051 10.5067
1 -0.149854 1.41795 1.60489
1 11.3348 12.6884 8.09993
1 12.5517 11.1802 1.60096
1 1.60146 0.219321 8.54511
1 12.354 10.5337 11.7814
1 1.63989 -0.0294681 5.54038
1 12.427 0.848327 12.2313
1 11.3022 12.6523 4.94008
96
 Atoms. Timestep: 18000
2 12.613 8.777 5.25075
2 5.20961 12.6245 11.326
2 -0.102886 4.86841 4.32521
2 8.13116 12.3471 11.5545
2 13.1581 4.63068 8.59628
2 7.45339 12.236 0.741634
2 -0.384007 7.71932 8.56008
2 4.67345 1.08989 13.3643
2 11.1399 8.17306 7.13007
2 4.32466 11.0556 0.335708
2 2.20919 4.53285 6.59385
2 8.80485 1.30808 13.2009
2 1.98864 8.40634 6.45586
2 8.15507 10.1219 13.5035
2 11.1945 4.3242 6.45998
2 6.52829 1.83843 11.3142
2 11.1129 6.95872 4.50681
2 6.34035 10.2371 11.7067
2 1.73943 6.51788 4.94012
2 8.68716 2.28286 10.9178
2 1.57597 6.56152 8.71213
2 6.6784 1.40729 1.4558
2 10.2256 5.96014 8.28677
2 5.87972 10.6632 1.57207
2 11.0622 8.56988 9.85016
2 3.16786 11.48 2.71804
2 2.532 3.46483 9.15193
2 9.07492 1.77332 2.14589
2 1.62154 9.37358 8.88499
2 8.49369 10.7925 2.92583
2 10.6929 3.02862 8.60783
2 3.90615 1.48779 2.76473
2 2.55598 3.35767 4.10063
2 9.52446 1.20028 9.17019
2 9.76438 9.24249 4.83409
2 3.97721 10.3357 11.1592
2 10.8461 3.91899 3.68196
2 3.79958 1.96354 10.7061
2 1.77073 9.22462 3.98032
2 8.89609 9.95771 10.4107
2 0.239149 11.0921 0.0253641
2 1.39633 12.3109 6.76697
2 -0.00331371 2.16855 13.345
2 11.1681 0.0643397 7.12776
2 12.3938 12.7629 1.37785
2 12.336 -0.444797 8.90737
2 0.122232 0.0204936 11.5469
2 12.2496 0.0825597 5.07421
2 11.6059 1.74675 1.83327
2 10.2996 11.4147 9.27354
2 0.594255 9.90138 1.78419
2 1.60994 0.896707 8.84637
2 1.42874 1.59229 1.89739
2 2.37714 11.2505 8.94487
2 11.0837 10.9446 2.72395
2 11.0114 2.30754 11.1177
2 1.5884 10.2364 11.5636
2 2.18087 0.680625 4.20645
2 9.19456 4.16072 9.41884
2 9.74509 11.8019 5.08498
2 11.8651 10.288 11.3067
2 10.3206 1.04367 4.26972
2 0.895283 2.4913 10.7183
2 0.903786 11.5573 3.85759
1 10.649 7.71985 8.68701
1 4.58693 11.8473 1.79516
1 1.91253 4.80404 8.37478
1 8.15889 0.841276 1.13029
1 1.47487 7.90347 7.98675
1 7.58039 10.4669 1.52973
1 11.1042 4.59852 7.91102
1 4.9544 1.32265 1.39505
1 1.67297 4.67684 4.99302
1 8.0632 1.18361 11.5813
1 11.041 8.26696 5.23195
1 5.00727 11.0099 12.2422
1 11.3362 5.20576 4.83516
1 4.96741 1.22019 11.6256
1 1.2514 8.21635 4.96376
1 7.99515 10.6685 11.8588
1 9.59627 10.6142 3.88615
1 2.58366 10.0775 10.2963
1 2.32719 1.98555 3.39702
1 9.69507 2.69887 9.8258
1 1.79976 10.6006 2.88482
1 10.4998 10.1427 10.2573
1 10.5055 2.34215 2.98187
1 2.35601 1.97817 9.94625
1 0.0810711 1.30221 1.12076
1 10.5985 0.0291185 8.67953
1 12.2919 11.0164 1.42652
1 1.15578 12.3479 8.5292
1 0.269479 11.1901 12.0107
1 0.963168 12.5949 4.94336
1 12.6394 1.58937 11.5769
1 10.7373 0.216284 5.50505
96
 Atoms. Timestep: 20000
2 12.6953 8.55346 5.06306
2 5.62807 0.137184 12.2052
2 -0.245542 4.46474 4.17765
2 8.82898 0.0253794 11.7488
2 12.8455 4.03327 8.17777
2 7.60084 -0.14158 1.37465
2 0.413359 7.05556 8.6404
2 4.77474 2.21023 0.271785
2 11.1192 7.75541 7.01478
2 4.8047 10.6324 13.1102
2 1.43367 4.80494 6.27848
2 8.90232 1.77279 -0.0754598
2 2.09446 8.5505 6.5135
2 8.08215 11.17 13.421
2 10.7217 4.06133 6.33758
2 4.98324 3.23787 12.0888
2 11.3178 6.18716 4.87867
2 6.56673 11.2044 11.5059
2 1.56342 6.82553 4.82847
2 8.09084 2.87871 8.48912
2 2.33962 5.87822 8.24978
2 6.63801 2.38721 2.26762
2 10.881 6.01383 8.79253
2 6.39563 10.7657 1.18015
2 10.6018 8.47618 9.53557
2 3.65992 11.1014 2.28156
2 1.93639 2.88163 9.13709
2 8.82264 1.98375 2.89826
2 1.73542 8.96199 9.54591
2 9.36264 10.6348 1.50711
2 10.3298 3.52892 9.13592
2 3.72513 1.82124 2.79241
2 2.40246 3.66925 4.35675
2 9.81985 0.803801 8.63355
2 10.083 8.66263 3.88115
2 3.4207 11.4522 10.7512
2 10.4072 3.33782 4.50436
2 3.07176 1.18213 11.7351
2 2.21082 9.60781 4.32253
2 8.94098 10.274 10.7943
2 12.6898 10.9442 -0.296543
2 0.704446 12.9123 6.41376
2 0.131386 1.49321 0.346298
2 11.1086 11.9942 6.62424
2 0.340629 12.5041 1.46415
2 12.2189 12.0357 8.42388
2 11.95 -0.264271 12.4025
2 12.5181 -0.35016 4.24667
2 11.9082 2.06897 2.39233
2 10.4053 10.9532 8.58551
2 0.672712 10.2542 2.17069
2 1.09833 0.544838 9.19803
2 1.15341 1.97455 2.36763
2 1.84737 11.3612 8.93799
2 11.3078 10.5362 2.53189
2 11.0461 2.1149 12.1308
2 0.863787 11.0137 11.2698
2 1.63822 1.69518 4.46906
2 9.00895 2.33455 10.6521
2 9.90068 11.2278 4.60486
2 11.4613 10.6098 10.6739
2 10.8508 0.799515 4.54121
2 0.698469 2.32726 11.5106
2 1.72721 12.187 3.80622
1 11.8286 7.37645 8.50795
1 4.85486 10.6341 1.22337
1 1.40016 4.25524 8.20688
1 8.1393 1.42019 1.41574
1 1.87275 7.54532 8.119
1 7.90945 11.2815 1.24087
1 11.0149 4.35445 7.98549
1 5.08204 1.94151 1.91193
1 1.41329 5.09378 4.69802
1 9.53121 1.55036 12.0081
1 11.0697 7.7974 5.23405
1 4.98118 11.6482 11.6306
1 11.3828 4.65222 4.90374
1 4.86482 1.50356 12.2546
1 1.38613 8.58918 5.0477
1 8.15349 11.4195 11.8067
1 9.97488 10.2072 3.40258
1 1.80886 10.2736 10.2451
1 2.39909 2.54341 3.32257
1 9.3025 2.15025 9.12417
1 2.21393 10.6405 3.01676
1 10.1493 10.0641 9.86393
1 10.296 2.2916 3.51843
1 1.93095 1.72361 10.318
1 0.0357475 1.03772 1.84786
1 10.6147 12.5551 8.05906
1 12.5961 11.0007 1.37029
1 0.802587 12.5723 7.97483
1 12.4164 11.3243 11.9109
1 0.957619 0.149653 4.74901
1 12.5606 1.31946 12.282
1 11.2675 12.2325 5.08591
96
 Atoms. Timestep: 22000
2 0.0670034 7.7382 4.86926
2 3.23116 0.536741 11.8916
2 -0.117573 4.62733 5.2943
2 8.20163 -0.00812569 11.7997
2 0.247987 4.91929 7.2864
2 8.13271 -0.200686 1.88575
2 12.6719 8.20514 8.68028
2 3.84437 2.22401 0.729849
2 10.9596 7.49043 6.50081
2 4.48083 12.4585 0.260499
2 2.18096 4.60677 6.3823
2 8.10389 1.8269 -0.619799
2 1.02895 8.12513 6.83725
2 8.42865 11.5329 13.1989
2 11.0238 4.37171 6.16312
2 4.26553 3.1013 12.1707
2 11.077 6.03952 4.05158
2 5.90473 11.3438 11.9887
2 2.14777 6.4847 4.46237
2 8.53108 1.98141 7.44895
2 1.95657 6.5372 8.30477
2 6.69986 1.94968 1.59915
2 11.556 6.16369 8.45164
2 6.68308 11.2243 1.67768
2 10.0568 8.50753 8.94341
2 4.02671 11.6666 2.98867
2 1.64609 3.51138 8.89849
2 9.69822 2.09394 2.11644
2 2.43938 8.94784 9.64088
2 8.97159 10.3997 2.1
2 10.0833 3.94576 7.97628
2 4.08319 1.89593 3.09818
2 1.63022 3.50789 3.82688
2 10.0867 0.680759 8.52795
2 10.6886 9.14663 4.26643
2 2.89149 10.8346 11.4812
2 10.3705 3.27952 3.93263
2 1.92491 2.18077 11.9413
2 2.06641 9.22889 3.92019
2 8.60859 10.1087 11.552
2 0.0231988 10.4398 0.0983465
2 1.38768 0.229167 6.99352
2 -0.219096 1.55986 12.9874
2 10.9969 11.7696 6.70929
2 -0.412545 12.3918 0.983933
2 12.7619 12.0334 8.43583
2 12.6827 12.2262 12.1551
2 12.73 12.08 5.08017
2 12.2574 1.53613 2.24887
2 10.1549 11.0589 9.15655
2 1.59349 11.0048 2.23654
2 2.36607 0.713986 9.5092
2 1.78723 1.70678 1.70442
2 2.08641 11.0555 9.19738
2 12.0308 10.6166 2.68102
2 10.7144 1.37994 12.062
2 0.762645 9.80429 11.4813
2 1.75137 1.13185 5.0543
2 9.1774 2.57648 10.3261
2 10.4019 11.128 4.44772
2 11.092 10.747 11.3077
2 10.6548 0.788576 4.1361
2 -0.0478537 1.15102 10.2624
2 2.44533 11.7047 5.12198
1 11.2717 7.67889 8.115
1 5.19963 11.926 1.49969
1 1.79884 4.94625 7.90771
1 8.29161 1.45487 1.28687
1 1.26307 7.86601 8.40056
1 8.13471 11.4546 1.19751
1 11.6104 4.77287 7.62995
1 5.13877 1.37611 1.97256
1 1.48534 4.94714 4.84353
1 9.01149 1.66723 11.7086
1 11.2232 7.52972 4.94006
1 4.24576 11.9082 12.0256
1 11.2896 4.50492 4.63901
1 3.23303 2.05588 12.8869
1 1.72576 8.10342 5.04306
1 7.46477 11.3054 11.5691
1 10.5147 10.1543 3.03578
1 1.81727 10.1827 10.5344
1 2.52765 2.01711 3.62671
1 9.55315 2.382 8.72692
1 2.71453 10.8492 3.79612
1 9.92778 9.75143 10.1979
1 10.8461 1.96533 3.05415
1 1.50322 2.17511 10.0978
1 0.293601 1.18923 0.885515
1 11.1314 12.3292 8.14059
1 0.176696 11.0212 1.52883