96
 Atoms. Timestep: 0
2 0 7.95642 4.74695
2 4.63304 0 11.358
2 0 4.63304 4.74695
2 7.95642 0 11.358
2 0 4.63304 8.47514
2 7.95642 0 1.8641
2 0 7.95642 8.47514
2 4.63304 0 1.8641
2 10.7421 8.43088 6.61105
2 4.15858 10.7421 0
2 1.84736 4.15858 6.61105
2 8.43088 1.84736 0
2 1.84736 8.43088 6.61105
2 8.43088 10.7421 0
2 10.7421 4.15858 6.61105
2 4.15858 1.84736 0
2 10.5201 6.29473 5.04003
2 6.29473 10.5201 11.6511
2 2.06934 6.29473 5.04003
2 6.29473 2.06934 11.6511
2 2.06934 6.29473 8.18207
2 6.29473 2.06934 1.57102
2 10.5201 6.29473 8.18207
2 6.29473 10.5201 1.57102
2 10.1594 8.65935 9.20274
2 3.93011 10.1594 2.59169
2 2.43004 3.93011 9.20274
2 8.65935 2.43004 2.59169
2 2.43004 8.65935 9.20274
2 8.65935 10.1594 2.59169
2 10.1594 3.93011 9.20274
2 3.93011 2.43004 2.59169
2 2.43004 3.93011 4.01936
2 8.65935 2.43004 10.6304
2 10.1594 8.65935 4.01936
2 3.93011 10.1594 10.6304
2 10.1594 3.93011 4.01936
2 3.93011 2.43004 10.6304
2 2.43004 8.65935 4.01936
2 8.65935 10.1594 10.6304
2 0 10.703 0
2 1.88643 0 6.61105
2 0 1.88643 0
2 10.703 0 6.61105
2 0 0 1.872
2 0 0 8.48305
2 0 0 11.3501
2 0 0 4.73905
2 11.2706 2.31295 2.18973
2 10.2765 11.2706 8.80078
2 1.31887 10.2765 2.18973
2 2.31295 1.31887 8.80078
2 1.31887 2.31295 2.18973
2 2.31295 11.2706 8.80078
2 11.2706 10.2765 2.18973
2 10.2765 1.31887 8.80078
2 1.31887 10.2765 11.0324
2 2.31295 1.31887 4.42131
2 11.2706 2.31295 11.0324
2 10.2765 11.2706 4.42131
2 11.2706 10.2765 11.0324
2 10.2765 1.31887 4.42131
2 1.31887 2.31295 11.0324
2 2.31295 11.2706 4.42131
1 11.0086 7.83654 8.10972
1 4.75292 11.0086 1.49867
1 1.5809 4.75292 8.10972
1 7.83654 1.5809 1.49867
1 1.5809 7.83654 8.10972
1 7.83654 11.0086 1.49867
1 11.0086 4.75292 8.10972
1 4.75292 1.5809 1.49867
1 1.5809 4.75292 5.11238
1 7.83654 1.5809 11.7234
1 11.0086 7.83654 5.11238
1 4.75292 11.0086 11.7234
1 11.0086 4.75292 5.11238
1 4.75292 1.5809 11.7234
1 1.5809 7.83654 5.11238
1 7.83654 11.0086 11.7234
1 10.1088 10.1088 3.30552
1 2.48067 10.1088 9.91657
1 2.48067 2.48067 3.30552
1 10.1088 2.48067 9.91657
1 2.48067 10.1088 3.30552
1 10.1088 10.1088 9.91657
1 10.1088 2.48067 3.30552
1 2.48067 2.48067 9.91657
1 0 1.60471 1.57853
1 10.9848 0 8.18958
1 0 10.9848 1.57853
1 1.60471 0 8.18958
1 0 10.9848 11.6436
1 1.60471 0 5.03252
1 0 1.60471 11.6436
1 10.9848 0 5.03252
96
 Atoms. Timestep: 2000
2 12.4404 8.74695 5.40006
2 5.49808 12.3034 11.3579
2 0.077989 5.69085 4.45422
2 7.95566 11.7859 13.0145
2 12.4389 4.63804 8.07604
2 11.5612 1.41305 1.57637
2 12.2078 8.16818 8.33161
2 4.74687 0.18394 1.18392
2 10.117 7.73147 7.03285
2 4.32848 11.1909 13.1619
2 1.05848 4.42916 6.14907
2 8.81841 1.02545 0.677894
2 1.71648 8.11872 7.04721
2 6.96494 10.1087 -0.0108975
2 10.614 5.42271 6.39644
2 4.62108 1.42348 12.3623
2 10.4722 6.91559 4.87598
2 6.33777 10.2744 11.3907
2 1.75996 6.9815 5.0236
2 6.69251 1.26311 12.1963
2 1.49786 5.86584 8.05113
2 8.87387 1.70778 3.53905
2 10.2736 6.25599 8.71112
2 5.66923 11.0479 2.17973
2 10.2447 9.28633 9.59931
2 3.19363 10.5352 2.00051
2 2.27108 3.01289 8.33811
2 7.44652 2.92621 5.53454
2 2.02215 8.1805 9.13967
2 9.00563 10.2637 2.26776
2 10.9601 3.11426 8.5825
2 3.68784 2.54413 1.85189
2 2.66434 3.89691 4.09422
2 9.89592 2.66053 10.955
2 10.1067 9.12352 4.06345
2 3.44741 9.87984 10.6044
2 9.72082 4.13684 4.59837
2 4.33506 1.73683 10.0448
2 2.02218 9.65407 4.25624
2 9.05043 9.9185 11.6293
2 13.1425 10.4805 13.059
2 1.96003 12.2759 6.25091
2 0.459726 1.28165 13.0298
2 11.0445 12.6049 6.29979
2 12.1389 12.3866 1.21583
2 12.9006 12.481 8.30757
2 13.1368 12.4486 11.0354
2 -0.0796002 0.97375 4.60537
2 12.3537 5.87124 1.55589
2 9.63004 11.5476 8.91919
2 0.496668 10.8957 2.30533
2 2.63912 0.107577 8.68347
2 1.04952 1.69916 2.21969
2 1.41377 11.1688 9.21799
2 11.0319 10.7297 1.92278
2 11.0756 0.742651 9.06038
2 0.289384 9.66996 10.7034
2 2.20164 1.77248 4.0899
2 12.1867 1.4033 10.5951
2 11.2215 11.8408 3.89864
2 11.1664 10.5781 11.4063
2 10.0233 1.31831 5.54293
2 1.54527 1.7225 9.8401
2 2.09826 12.2142 3.71916
1 10.6631 8.02668 8.69759
1 4.32719 11.4346 1.12315
1 1.09668 4.28506 8.16377
1 9.6232 1.72979 1.89972
1 0.676181 7.44456 8.4561
1 7.24023 10.0559 1.74025
1 10.7037 4.80122 7.93906
1 4.26917 1.81979 0.371487
1 1.74024 5.20756 5.02249
1 8.2674 0.43517 12.9364
1 10.7684 8.20894 5.61187
1 4.5504 10.7096 11.5677
1 11.1948 5.23314 4.89262
1 5.36118 1.06338 11.0471
1 1.28583 8.45171 5.61377
1 7.62028 10.3643 12.325
1 10.2456 10.4986 3.20289
1 1.8944 9.65646 9.84838
1 2.35132 3.00501 2.80428
1 10.9455 2.1966 9.91978
1 1.82292 10.7994 2.84229
1 9.80149 10.7233 10.5747
1 9.08532 2.68044 5.32837
1 2.84816 1.59676 8.93345
1 -0.0493322 0.881136 0.926298
1 11.0692 12.268 8.20861
1 12.3676 10.7374 0.835517
1 1.65864 12.2142 7.86917
1 12.6529 11.0366 11.4295
1 1.57819 0.37849 4.84302
1 0.666195 1.20041 11.3361
1 11.3219 0.597564 4.96445
96
 Atoms. Timestep: 4000
2 8.01933 7.99026 5.52163
2 4.9188 12.378 9.04611
2 0.51466 3.88776 4.89567
2 7.25371 11.2687 11.9413
2 11.7551 4.3827 8.08922
2 10.4422 0.0467518 0.513925
2 0.0132353 8.66014 7.76242
2 2.48546 0.479376 1.30012
2 9.91112 8.16549 7.00239
2 5.47376 10.3394 0.226579
2 3.88021 2.51029 5.42556
2 7.39069 0.0380925 0.158883
2 1.21479 6.43253 6.26952
2 8.57188 9.9666 0.349084
2 9.7366 5.27667 7.15912
2 4.07074 0.827325 11.3449
2 8.82721 5.95416 5.22794
2 6.44694 9.18064 11.8376
2 2.36655 4.86884 5.42792
2 6.2276 0.790304 11.0524
2 1.48041 6.42828 8.29608
2 9.24459 1.53317 2.33738
2 11.0102 6.50552 8.79814
2 7.24851 10.3408 2.05197
2 11.0259 9.25852 9.63027
2 4.51739 11.7589 2.55565
2 1.53218 3.6278 8.57101
2 11.1574 3.5956 3.01314
2 2.44773 8.61507 8.41767
2 9.63096 9.78074 2.93553
2 9.84251 4.03915 10.3625
2 2.15526 2.33528 0.131966
2 3.24783 3.8904 2.91239
2 8.38915 1.75273 11.8018
2 10.8193 8.43691 4.51939
2 4.20249 9.95165 10.4195
2 9.83918 3.88867 4.67582
2 3.84853 1.9715 9.60859
2 0.795973 5.12313 3.23899
2 9.17681 10.1181 11.0949
2 2.11861 12.6172 12.4008
2 2.27954 0.380599 6.9139
2 12.2392 3.16134 13.1768
2 10.5888 0.329863 7.38314
2 11.4809 11.9559 0.557253
2 12.0483 1.31207 10.3709
2 12.6371 12.7389 11.6868
2 0.110051 0.0652566 5.62747
2 0.602586 10.789 -0.0501296
2 10.958 11.8997 9.71384
2 1.12637 11.5586 2.50485
2 1.83003 1.24829 8.8544
2 0.768203 3.71844 2.22084
2 2.57612 11.3197 8.37133
2 11.9136 10.1554 2.52821
2 9.52256 1.76683 9.59211
2 1.57253 10.46 10.7953
2 2.15687 2.02661 3.8935
2 10.7935 2.09096 11.7577
2 11.0057 11.5199 4.79314
2 12.4094 10.2269 11.6503
2 10.8158 1.5454 4.92729
2 1.39563 2.24127 11.0835
2 1.84127 12.1244 4.34868
1 11.0545 8.08986 8.20245
1 5.68289 10.7689 1.67655
1 0.796157 5.21368 8.68604
1 8.91841 0.262423 1.37059
1 1.42184 7.92412 7.33077
1 8.82524 10.5559 1.78598
1 10.126 5.02265 8.73014
1 3.13961 0.890823 12.8406
1 3.29873 3.84323 4.68992
1 7.41943 0.232506 12.0108
1 9.48472 7.49089 5.3341
1 5.08827 10.3277 12.0769
1 8.84726 4.55108 5.95201
1 4.87472 0.887048 10.0202
1 0.83437 5.63063 4.92244
1 8.14256 9.6673 12.2226
1 11.0609 9.90088 3.91602
1 2.65114 10.0366 9.51286
1 2.28011 2.64998 2.20154
1 9.41291 2.6245 11.011
1 2.62415 12.3472 2.73458
1 10.8462 10.4908 10.9525
1 10.0038 2.43686 3.57827
1 2.36982 2.65649 9.6658
1 12.0584 3.47005 1.38604
1 10.8558 0.5784 9.06441
1 -0.0845065 11.2311 1.4497
1 1.39589 12.776 8.25514
1 1.09484 11.4172 11.9905
1 1.69271 0.703589 5.14097
1 12.3985 1.64327 11.7963
1 11.0724 0.255263 5.682
96
 Atoms. Timestep: 6000
2 12.1436 8.20269 3.90781
2 5.95055 0.746068 11.5352
2 2.13312 5.46247 6.98476
2 8.13309 11.6683 0.399108
2 12.5161 4.94212 8.07943
2 7.44108 10.1796 3.10618
2 0.539488 8.36288 9.02017
2 3.07213 12.2129 0.858195
2 11.0284 8.66766 6.14707
2 5.67264 11.0217 12.8064
2 2.4077 6.43558 4.80988
2 8.76383 1.59566 12.5231
2 2.51951 7.62872 7.83025
2 8.33466 9.12827 0.91649
2 9.88429 4.4282 7.02391
2 4.05276 1.3388 12.4063
2 10.0673 6.14531 5.17805
2 7.60114 10.9005 11.4597
2 2.69225 8.58977 5.00275
2 6.29677 2.42698 13.0315
2 1.72131 6.45482 9.54733
2 7.63884 0.611042 3.73686
2 11.3271 6.55741 8.65576
2 5.68991 9.06699 1.71962
2 11.0182 8.90463 9.28889
2 4.02192 10.5316 1.86729
2 2.62921 4.09093 8.731
2 9.72574 1.17356 2.55203
2 1.90969 9.51416 10.2806
2 6.4741 7.14125 2.65708
2 10.7658 2.86274 8.30515
2 2.4867 2.55417 -0.0240653
2 1.05738 4.43843 4.0738
2 8.24159 2.31721 1.89453
2 -0.0281781 6.73174 2.60246
2 4.33258 11.4808 10.6898
2 9.47094 3.22129 4.40966
2 4.34802 2.69714 10.3649
2 4.53785 6.65727 5.98828
2 9.82343 9.11999 11.8299
2 1.18051 0.640825 12.0262
2 1.91732 12.3302 6.19547
2 11.1839 2.14142 0.144598
2 11.4561 11.9304 6.08563
2 11.608 12.3563 2.15201
2 0.544827 12.4021 7.72337
2 11.4113 0.900258 11.4256
2 12.3205 12.2485 4.25288
2 11.9281 11.6961 12.4934
2 11.6748 9.98357 7.95073
2 0.748235 11.1454 1.48571
2 2.71388 1.09135 8.81792
2 11.6202 2.45303 2.67933
2 2.72858 11.2683 9.04202
2 11.6761 9.42137 1.22572
2 11.1661 0.435664 8.40904
2 1.48584 11.7891 10.7653
2 0.254345 1.58597 4.52089
2 10.3274 2.57786 10.8253
2 9.66537 11.9066 3.61949
2 11.7375 10.893 9.95446
2 9.56719 1.11838 4.85979
2 2.08939 3.6624 10.8772
2 2.18714 12.3662 3.56247
1 12.0131 8.12797 7.55473
1 4.59294 10.042 0.510146
1 1.46846 5.22486 8.31501
1 7.93262 11.788 3.44899
1 2.2479 8.33086 9.40082
1 7.19174 8.58893 2.40835
1 10.9999 4.94305 8.43687
1 2.55991 1.09499 13.0064
1 1.54027 6.06049 3.3655
1 7.79659 2.18793 0.352571
1 10.8754 7.9536 4.9425
1 6.18223 11.6627 11.0185
1 10.0288 4.62268 5.34036
1 5.00938 2.12034 11.5993
1 3.01458 7.0258 6.28492
1 8.63966 10.154 12.6151
1 12.2689 8.37519 2.29822
1 2.62263 10.7604 10.5561
1 0.0977497 3.08118 3.85534
1 10.6331 1.88508 9.41155
1 2.22041 11.4716 2.29752
1 10.4839 9.66268 10.52
1 8.65896 2.07537 3.31605
1 2.91534 2.67482 9.77689
1 10.9741 1.351 1.62081
1 11.5052 11.5838 7.6603
1 11.8627 11.0434 0.953941
1 2.22211 12.637 7.88994
1 12.6723 12.2543 11.0396
1 1.10592 -0.0738659 4.80569
1 10.2088 1.90314 12.1687
1 10.7204 12.5036 4.6775
96
 Atoms. Timestep: 8000
2 12.0754 7.85443 2.57918
2 5.14432 11.7577 11.259
2 1.53795 4.80706 8.13936
2 8.47029 11.3978 12.3849
2 11.7556 5.07954 8.26088
2 8.50124 11.4795 3.14566
2 11.5808 8.50099 8.65296
2 4.07204 13.2785 3.16363
2 10.5238 8.90002 5.91287
2 4.38995 9.40916 0.488054
2 1.29635 6.11406 5.19215
2 8.05895 0.929747 12.2196
2 1.35808 7.27746 7.53604
2 8.91239 9.79469 0.530613
2 9.98491 5.5612 5.79561
2 4.39695 0.628155 0.354524
2 10.7003 6.82784 4.02787
2 6.5296 10.2115 11.5173
2 3.52777 5.21307 6.17377
2 5.88274 2.04049 11.9696
2 0.700451 6.45888 9.81181
2 8.45121 2.58731 2.40323
2 8.68145 5.9364 8.35276
2 6.63396 9.26925 2.30229
2 9.19692 9.08638 7.5393
2 4.49629 10.3172 3.76208
2 0.914404 3.41993 10.4738
2 10.2168 3.74929 0.800576
2 2.20801 8.36193 9.44146
2 0.451076 8.80529 4.25925
2 9.55993 3.68344 8.52136
2 7.07728 1.04806 1.88325
2 0.681428 4.342 3.15717
2 7.59528 3.07619 0.137909
2 2.0664 6.49026 1.94539
2 3.63426 9.91775 11.1434
2 9.23803 4.77809 2.64305
2 3.65047 2.2408 11.6185
2 10.1761 9.16746 2.66265
2 8.20871 10.1258 10.1832
2 11.6125 3.34293 0.703535
2 2.22193 1.40478 7.4368
2 10.7568 1.15064 13.351
2 10.507 1.10659 6.30072
2 11.9653 10.1983 3.10546
2 0.359308 0.424693 6.91789
2 10.6575 11.3321 11.9596
2 11.5061 2.59235 3.81341
2 0.886407 11.3954 0.562636
2 10.9526 11.2596 7.12342
2 2.27782 10.6718 3.1779
2 1.49361 1.42505 10.0402
2 0.376361 1.56882 1.95174
2 2.53736 11.584 9.1047
2 0.940081 9.2497 1.42464
2 11.3987 0.984677 9.01626
2 0.823275 10.6036 10.0543
2 0.826172 2.27094 4.84077
2 9.53375 1.36004 10.8137
2 8.93382 1.47794 4.27202
2 0.69015 12.1573 12.2407
2 9.43684 3.64426 4.32053
2 0.979919 1.40213 12.2648
2 2.2548 0.125333 4.64961
1 10.7516 9.29014 7.38257
1 4.91541 9.47957 1.94047
1 0.503532 4.6312 9.22764
1 8.12971 0.635197 2.90972
1 0.615498 7.83394 9.07731
1 8.78953 9.96356 2.364
1 10.0087 5.35617 7.51282
1 5.44993 0.645531 1.80619
1 1.97987 5.69757 3.37738
1 7.59737 2.37747 11.7334
1 11.2013 8.64293 3.93497
1 4.92154 10.1016 12.0907
1 10.309 5.14537 3.99484
1 4.66765 0.92977 11.6678
1 1.71054 5.80176 6.77875
1 8.14143 10.1822 11.7352
1 0.863301 7.79524 1.33853
1 2.72561 10.198 9.64858
1 0.637297 2.57469 3.11084
1 10.389 2.32433 9.65757
1 3.45448 11.4725 4.1586
1 7.91811 9.97944 8.26771
1 8.71146 3.71057 1.245
1 1.94387 2.38139 11.1643
1 12.2017 1.8536 0.424799
1 11.3768 0.20257 7.58907
1 0.907919 10.6367 2.10774
1 2.00548 0.81012 8.8377
1 12.0312 11.3827 10.91
1 1.65196 1.03547 5.68701
1 9.60182 0.0806665 12.22
1 10.4626 2.07319 4.88438
96
 Atoms. Timestep: 10000
2 3.70586 9.29991 4.76007
2 4.51 0.746285 10.5911
2 1.813 5.64229 8.33926
2 8.4087 10.8311 11.8259
2 11.8994 4.76408 8.82902
2 8.09919 12.166 1.70585
2 11.5575 8.66082 7.6251
2 4.36726 1.62052 2.71716
2 9.73229 8.04471 5.15696
2 6.69038 10.2018 3.28573
2 2.03966 4.47926 5.98768
2 8.07451 0.883711 10.9845
2 4.27417 4.46559 7.85834
2 7.57085 9.32136 0.516393
2 9.74035 4.85441 10.1573
2 4.72802 2.81609 0.265535
2 10.8847 6.50554 3.22742
2 5.97532 10.4997 11.2481
2 3.45189 6.81676 6.86067
2 5.84386 2.66397 10.4837
2 0.195755 6.8853 9.79846
2 9.46432 3.1952 12.8579
2 6.15676 9.43075 8.50917
2 4.37279 9.10025 2.1114
2 8.5923 8.83445 7.00481
2 4.62961 11.5743 3.38289
2 0.921352 4.14842 10.8098
2 11.0171 4.23349 1.35537
2 12.1229 9.50263 10.2973
2 0.551931 5.8262 3.60685
2 10.1881 3.0715 8.19519
2 6.96 1.81843 1.82202
2 2.215 3.73027 3.78905
2 8.03951 3.2562 11.0613
2 1.74002 7.08552 4.81293
2 5.2162 10.8429 8.93665
2 11.0976 2.86504 11.1167
2 2.82162 1.69676 11.4763
2 9.31449 9.41209 2.81693
2 7.95596 9.34641 10.112
2 11.2713 2.81506 0.854034
2 1.21338 0.983101 7.44784
2 10.5113 0.347609 12.7529
2 9.69694 0.859048 4.68065
2 11.5768 8.95583 4.36719
2 11.9162 11.9523 5.46708
2 0.34201 10.2728 2.9311
2 11.8865 2.32911 3.88936
2 1.70897 11.3362 4.82195
2 10.3458 10.4074 5.93889
2 4.95713 12.5653 1.22331
2 1.10097 1.77804 9.83457
2 0.830125 2.43409 1.86347
2 1.5535 11.3439 9.85784
2 1.39253 9.14619 5.83388
2 10.5889 0.500303 7.12342
2 1.33256 10.7013 12.7833
2 2.11884 0.779958 2.84176
2 10.5733 0.530166 9.77236
2 9.48213 1.75114 1.91661
2 0.607498 12.3308 1.51311
2 9.7161 3.601 3.73709
2 0.666151 1.54865 12.4179
2 1.24737 1.83397 5.06995
1 10.1301 8.70582 6.53843
1 4.88251 9.52856 3.46902
1 0.647016 5.32141 9.93335
1 8.27059 1.67552 0.723152
1 11.9183 8.4567 9.1636
1 7.89141 10.3134 2.10484
1 10.282 4.76391 8.47394
1 5.49569 2.71549 1.92539
1 1.56575 5.1773 4.5123
1 7.20638 2.15634 10.2046
1 10.1183 8.11473 3.59151
1 4.87047 11.3135 10.4023
1 10.0025 4.90411 2.49135
1 4.47533 2.01151 11.6351
1 3.06808 5.33526 7.13353
1 7.32321 9.5006 11.6788
1 2.90207 8.20321 5.70687
1 0.737234 10.4558 11.2787
1 1.39262 2.18735 3.48419
1 10.6949 1.34381 8.48349
1 3.56266 0.373113 2.38694
1 7.81746 9.20689 8.40584
1 9.69377 3.67323 11.2485
1 1.4159 2.31993 11.2471
1 11.79 1.26599 0.852104
1 10.3971 12.1155 5.71747
1 0.931523 9.68723 4.4729
1 1.45085 0.549961 8.99244
1 1.23413 10.8011 1.57425
1 0.953901 0.528432 5.92889
1 9.33037 12.1846 11.2201
1 10.3485 2.14826 3.74502
96
 Atoms. Timestep: 12000
2 4.63429 8.50506 3.70549
2 4.92018 11.668 11.7227
2 0.865085 5.17008 6.87554
2 10.3647 10.857 0.739494
2 11.2222 5.52343 9.23944
2 8.3727 12.3911 1.72721
2 11.0918 9.417 8.31987
2 4.13895 2.25424 2.39588
2 10.1608 8.74486 6.1291
2 6.63493 10.2323 2.2015
2 0.385387 3.94606 4.48267
2 9.34279 0.549415 10.7001
2 11.9741 2.67576 6.49651
2 8.50413 10.1091 0.681546
2 10.3539 4.32445 11.2456
2 4.8175 2.64901 11.1784
2 10.2397 7.14604 4.11845
2 3.21336 9.50704 11.4182
2 3.81085 7.59242 5.67317
2 6.68778 1.09604 10.9996
2 0.984176 6.74301 8.60471
2 9.34527 2.63873 1.53932
2 7.53907 7.41504 8.85395
2 4.35947 9.88964 0.905683
2 8.90756 9.8048 8.4773
2 3.96623 11.0821 2.96955
2 2.08543 3.89372 9.11459
2 9.86874 4.82689 1.60942
2 1.04262 8.84164 10.1605
2 12.0725 5.58829 3.12766
2 10.7179 2.36956 10.1652
2 6.13559 2.55717 1.64443
2 2.41483 3.67415 3.01402
2 9.13816 2.82538 12.1165
2 2.60703 6.21669 3.25173
2 5.42126 8.84052 10.6806
2 11.8953 4.33526 1.49202
2 4.01295 1.73544 9.64723
2 8.99475 9.65905 3.44836
2 8.48273 9.2481 10.875
2 11.9947 2.7066 12.6315
2 1.8288 11.3594 7.2619
2 0.402771 0.58377 11.0634
2 10.0883 2.74492 5.78075
2 10.8628 9.05182 3.83295
2 11.432 0.907415 8.41902
2 12.2261 9.64507 2.26071
2 10.8628 2.50522 3.65427
2 1.92952 9.87885 4.82094
2 10.6772 12.0323 6.6748
2 3.02901 1.20665 0.529998
2 1.94424 1.1488 8.31181
2 11.3146 0.662687 2.46841
2 0.898698 11.1131 9.96449
2 1.48247 7.73467 4.10426
2 9.55923 2.10968 8.1627
2 0.529296 9.88303 12.6394
2 2.02758 1.16384 2.90288
2 8.005 4.13475 8.385
2 8.30339 2.61445 3.36838
2 12.0553 0.396711 0.474056
2 9.60314 5.02563 3.76646
2 1.90329 2.61982 11.1316
2 1.12718 0.337694 4.86429
1 9.89263 10.282 7.28748
1 4.82924 9.57134 2.36406
1 1.11131 5.25177 8.5933
1 7.72998 2.00089 1.80434
1 0.397693 8.39527 8.45911
1 8.10547 10.5165 2.1537
1 10.7179 5.90342 10.5375
1 5.24122 3.11438 3.09268
1 1.30274 4.7255 3.42474
1 8.26939 1.4818 11.5042
1 9.47871 8.53728 4.79034
1 4.82769 9.94646 11.8208
1 10.5314 6.17526 2.82792
1 5.01136 1.01296 11.0422
1 12.0718 4.06922 6.07217
1 9.38697 9.81162 12.1271
1 3.13677 7.49961 4.22847
1 1.47946 9.97274 11.2212
1 0.338136 1.42748 3.59169
1 9.3972 3.18412 9.21365
1 3.30674 0.796622 2.2341
1 8.23768 8.67843 9.38114
1 10.3473 3.68136 0.245797
1 2.61042 2.28484 9.17999
1 1.2905 1.35343 12.262
1 10.5969 1.39887 7.01193
1 0.663735 8.96896 4.18846
1 0.87346 12.0068 8.29834
1 11.6751 11.0708 1.31905
1 2.07249 11.2477 5.40093
1 10.8769 0.775394 11.0463
1 9.40939 3.45959 4.02421
96
 Atoms. Timestep: 14000
2 2.3216 9.63815 6.23057
2 4.35814 1.32167 9.95216
2 11.8939 4.52473 7.85865
2 11.7998 10.7192 0.554381
2 9.85759 5.38226 9.12022
2 7.42264 11.0227 2.45953
2 11.4745 8.27639 7.21526
2 3.61561 3.60966 4.92065
2 10.0637 8.99605 5.40372
2 6.77909 9.79471 0.789479
2 1.29499 4.25419 5.86619
2 7.67513 1.9383 11.8273
2 11.6375 2.06371 6.41534
2 9.59119 9.76154 0.842176
2 9.2351 4.97548 11.4684
2 3.66393 2.09219 12.7064
2 10.073 6.08634 3.68767
2 4.30136 10.5623 9.93942
2 2.00511 7.57201 7.22461
2 5.93441 3.1206 11.5795
2 11.9332 6.71153 8.33375
2 6.61912 1.72089 1.61104
2 11.8537 8.9726 9.19456
2 5.22162 11.8927 11.5709
2 10.1667 9.97393 8.56214
2 4.69133 12.0578 1.66459
2 1.35073 5.14024 9.17107
2 10.2104 4.70603 1.83996
2 2.29589 8.86204 8.89444
2 0.768166 4.72183 3.84691
2 9.02924 1.55134 10.2845
2 6.1016 1.48588 3.74478
2 1.21535 2.64111 3.93658
2 6.5761 3.81066 1.38162
2 2.63621 5.84107 4.80767
2 6.75315 0.146054 9.31956
2 8.50681 3.41774 0.453942
2 2.95031 3.12905 10.751
2 8.84678 8.84634 3.16742
2 9.93037 11.1513 11.3631
2 11.7232 3.35372 0.181481
2 2.27544 12.2248 6.58958
2 10.6872 1.59397 12.2766
2 10.1064 0.760626 5.15027
2 11.7548 8.38772 3.12529
2 11.7569 0.261978 7.6558
2 1.61171 9.45195 1.48792
2 11.9002 0.607437 3.34556
2 1.02553 10.3979 4.10435
2 9.95976 10.9631 6.63701
2 2.70492 1.82304 2.77522
2 1.9379 1.61089 8.50436
2 1.20553 12.4226 1.60544
2 1.77005 11.0418 9.05346
2 2.03001 7.81341 4.15237
2 8.64092 1.07353 7.56252
2 1.78506 10.0549 11.5621
2 4.79065 3.0785 2.48633
2 7.70839 3.10427 9.11643
2 8.84361 1.51145 2.85576
2 1.1455 0.433119 12.2555
2 10.2206 3.36561 3.89621
2 0.84417 2.34059 10.2334
2 2.24566 11.9941 4.32811
1 10.3191 9.61253 6.96399
1 5.57013 11.1429 0.434509
1 11.665 5.27701 9.07468
1 7.15194 0.903224 2.99688
1 0.801147 8.11188 8.25008
1 8.22246 9.71622 1.68484
1 8.40876 4.79294 9.9141
1 5.27749 2.74884 4.50627
1 2.049 4.10443 4.41522
1 6.91396 2.6769 13.0051
1 10.2569 8.07197 3.83345
1 5.14978 11.9132 10.0364
1 10.8865 4.69793 3.29463
1 4.25963 2.39894 11.0757
1 0.457731 3.35946 6.85075
1 10.5358 10.1405 12.3714
1 2.34744 7.64541 5.70525
1 2.41438 10.0733 10.1948
1 1.35866 1.06375 3.30822
1 7.88801 1.18358 9.07743
1 3.94451 1.42355 1.6759
1 10.484 9.22098 10.0394
1 9.96905 4.25913 0.205044
1 1.99734 3.23779 9.41892
1 0.389546 2.00043 12.0981
1 10.2005 0.740701 6.75288
1 1.22705 8.96716 3.16917
1 1.32996 0.29468 8.183
1 1.43976 10.9199 0.281183
1 1.80373 11.0237 5.411
1 9.4436 0.73164 11.8238
1 10.354 1.61848 3.68228
96
 Atoms. Timestep: 16000
2 1.36991 9.30998 5.86583
2 5.15893 0.340409 11.4139
2 11.5435 4.44212 7.55892
2 12.0646 10.3382 0.421192
2 10.3355 3.91866 10.1214
2 7.38966 12.1385 3.59168
2 10.783 7.57157 7.30031
2 4.38937 4.92074 4.10437
2 9.58275 7.95446 4.63588
2 6.39567 9.7437 1.5764
2 1.46633 5.71455 5.73573
2 7.83532 1.43648 0.120781
2 0.878142 2.97504 5.40295
2 9.26471 10.8364 1.4955
2 8.31507 3.69931 11.9563
2 4.43352 1.30824 0.778543
2 11.341 7.3287 3.21962
2 4.25715 11.3106 8.8658
2 1.39911 7.47364 6.69492
2 5.93239 2.77024 12.0236
2 11.8586 6.2895 8.94155
2 6.69721 2.08431 2.22276
2 12.1871 9.02823 8.9268
2 5.94284 10.4994 11.1758
2 9.61232 8.94494 8.31235
2 5.02145 11.0828 1.40584
2 1.25783 3.86991 8.92905
2 10.6169 5.07774 2.01213
2 1.30254 10.1461 8.45527
2 1.17114 5.58933 3.14044
2 8.44603 0.804225 10.0849
2 6.9129 3.33425 3.98831
2 2.30702 3.44565 3.525
2 6.27283 4.28699 1.70622
2 2.94076 6.45286 4.53153
2 6.64487 0.776723 9.08912
2 9.06046 2.88741 1.02658
2 3.40846 2.88352 11.3948
2 8.50678 9.28756 2.99797
2 10.1288 11.5248 11.9818
2 11.7416 2.17072 1.20381
2 0.716687 0.327675 6.32823
2 10.2618 1.85819 12.125
2 10.0696 12.2971 4.91956
2 11.4559 9.85474 3.03322
2 10.6843 12.3142 7.67072
2 1.75427 9.59956 1.11064
2 11.7874 1.68473 3.35345
2 1.33091 10.2977 4.01072
2 9.07586 9.8655 6.30369
2 2.81476 11.6462 1.12059
2 1.04343 1.44286 9.2746
2 3.56461 9.89621 12.7869
2 1.90007 11.982 8.01075
2 1.20502 7.87229 3.589
2 8.8293 0.812071 7.2114
2 2.30413 11.0899 10.9308
2 4.31682 0.867044 3.42548
2 8.37635 2.64506 9.14107
2 9.13689 1.79252 3.5822
2 0.839947 12.166 12.1494
2 11.4985 4.9499 4.86432
2 0.79155 3.11023 11.1542
2 1.32728 0.454783 4.29316
1 9.62977 8.25619 6.62467
1 5.4814 10.0529 12.739
1 11.833 4.56208 9.28502
1 7.50824 1.80271 3.54946
1 12.3535 7.51622 7.76971
1 7.7189 10.7665 2.40139
1 8.75597 3.70795 10.482
1 5.90698 4.87968 3.12781
1 2.35025 4.85209 4.15234
1 7.0696 3.12368 0.577048
1 10.0518 8.6781 3.13728
1 5.53295 11.9415 9.72174
1 11.5584 5.66231 3.41909
1 4.58343 1.88472 11.8111
1 12.386 4.43547 6.27233
1 10.9512 11.1693 1.27306
1 1.83213 7.54519 5.17353
1 2.64799 10.6946 9.2936
1 1.28606 2.06301 3.91829
1 8.03263 0.93064 8.60048
1 4.02622 12.2843 1.82743
1 10.6052 9.31403 9.59395
1 10.4434 3.23721 1.66521
1 1.99361 2.83504 9.84178
1 12.138 1.56333 12.4673
1 9.60367 11.4792 6.39038
1 0.858589 9.25812 2.5897
1 0.312932 0.513608 7.83297
1 1.84871 10.6659 12.6202
1 0.972995 10.9945 5.35359
1 8.90048 0.744991 11.7106
1 10.395 1.73518 4.5318
96
 Atoms. Timestep: 18000
2 2.83298 9.4666 6.17043
2 7.16459 9.2238 9.1979
2 12.068 3.77573 6.58923
2 11.3355 10.7388 12.658
2 10.229 3.75871 8.94275
2 8.48514 12.1185 2.91452
2 10.7947 8.00033 8.05258
2 4.9396 4.80928 3.12329
2 9.19883 7.88439 5.98539
2 6.61023 10.7315 2.88427
2 1.38215 6.05309 5.91481
2 7.47561 1.18449 0.759462
2 2.30653 3.15671 5.38199
2 8.62915 9.9642 0.999542
2 7.70096 4.41568 10.174
2 3.70351 2.36351 12.4711
2 10.7811 6.90168 3.69208
2 4.09092 10.0367 9.33556
2 1.21504 7.77851 7.49393
2 5.60692 4.36692 11.4364
2 11.9297 5.5534 8.69302
2 7.42203 3.26905 2.78424
2 10.8021 7.48524 10.145
2 5.41901 9.03978 3.42541
2 8.37718 8.32569 8.99623
2 4.57793 11.945 1.62264
2 0.604974 3.40711 9.53936
2 10.0028 5.30533 2.1427
2 1.83701 8.07609 9.79693
2 1.48357 6.12258 2.77921
2 7.89227 0.716479 9.9435
2 6.58478 5.68723 4.53503
2 2.74438 3.68565 2.73336
2 7.4099 6.87043 10.407
2 3.11182 6.47053 5.04319
2 6.47847 11.6482 8.34814
2 8.48906 5.54237 12.1284
2 2.5757 3.9008 11.8879
2 8.82129 9.34272 3.66306
2 9.42992 11.2875 11.7887
2 10.4597 3.77636 12.4243
2 2.35393 11.7656 6.78551
2 9.00644 2.35534 11.8857
2 10.8555 11.5755 4.60642
2 11.4128 9.08263 4.447
2 11.7098 10.7241 6.89105
2 1.26737 9.43545 1.67052
2 0.763212 1.9883 3.85614
2 1.52995 10.3957 4.6633
2 9.52836 9.73455 6.70758
2 1.83113 12.0643 0.843489
2 11.7259 0.894838 8.33062
2 4.33726 9.54682 1.3097
2 1.64588 10.8086 9.39696
2 1.95257 8.24637 4.47635
2 9.37952 11.9391 7.23962
2 2.57149 10.1762 11.6627
2 3.45912 1.75937 2.57811
2 8.03362 2.18527 8.08154
2 9.75118 2.49624 2.68703
2 11.2259 1.27148 1.59336
2 12.0913 4.6945 4.35506
2 0.511697 2.00542 11.9469
2 3.22286 0.483149 4.32404
1 9.23023 8.51974 7.57353
1 4.77122 10.459 2.72008
1 11.6083 4.07274 8.22044
1 8.33181 2.02276 2.25207
1 11.9921 7.10875 9.00231
1 8.23783 10.5229 2.33268
1 8.74201 3.67917 8.83509
1 6.6379 4.42107 3.65473
1 2.91673 5.52361 3.20125
1 7.07107 5.40417 11.1877
1 9.94236 8.21036 4.45516
1 5.60604 10.4298 9.0353
1 11.5112 5.6568 2.94189
1 4.10657 3.88319 12.2842
1 1.47821 4.5908 5.57708
1 9.95138 9.84367 12.2377
1 2.18031 7.77056 6.04093
1 2.42433 9.57027 10.1831
1 2.30707 2.22716 3.79724
1 7.9791 0.769811 8.19571
1 3.24872 1.03829 1.20419
1 9.33705 8.23649 10.4471
1 9.48054 4.81931 0.806866
1 1.41432 2.98446 10.8196
1 10.6577 2.04158 12.3222
1 10.3166 10.8828 6.07797
1 1.07029 9.18612 3.50899
1 1.09434 11.5517 7.78013
1 1.20673 10.7375 12.888
1 3.02366 10.9291 5.58251
1 8.20868 0.998315 11.4932
1 11.1364 1.2718 3.44857
96
 Atoms. Timestep: 20000
2 2.9721 8.91932 6.79395
2 4.47005 10.8566 7.25554
2 11.6845 4.22152 7.43366
2 0.0809534 9.59088 0.587452
2 10.1259 4.78948 9.30167
2 7.40629 11.0626 3.01512
2 10.5648 8.70947 7.9699
2 5.10185 5.12002 3.42483
2 10.1112 8.63902 5.35345
2 5.87914 8.00195 2.13098
2 1.9354 5.86091 5.97246
2 8.46114 1.35216 1.16259
2 1.64479 3.08902 5.72385
2 8.34487 9.25672 0.719677
2 7.27378 5.49221 9.55268
2 4.84596 1.3636 0.566764
2 8.68614 7.5114 2.90811
2 4.27919 10.0511 9.4788
2 1.18099 7.88665 6.77798
2 6.31238 3.96144 11.3164
2 0.952711 6.3687 8.78197
2 6.93905 2.73622 3.71689
2 6.44486 6.39834 6.83963
2 3.59392 5.80365 1.71271
2 8.72882 7.35594 7.19676
2 5.51251 10.5274 1.55623
2 1.81681 4.41124 9.84361
2 10.5284 6.68007 2.12101
2 2.06601 8.38016 9.51171
2 1.52435 5.80803 2.98347
2 8.17047 1.23472 10.1378
2 7.60756 5.31628 2.2327
2 3.63039 3.56735 4.24887
2 5.52504 6.49196 11.9698
2 3.24106 6.48779 4.31821
2 6.89849 0.334424 8.90701
2 8.12997 6.59968 12.257
2 3.54478 3.74033 11.7727
2 7.95845 9.25365 3.65842
2 9.40417 11.4131 11.525
2 9.79074 5.1151 0.609238
2 2.47286 11.8416 7.44932
2 9.74113 3.03595 11.7271
2 10.5803 12.7003 5.09766
2 11.1754 9.49386 3.82155
2 11.4136 0.739892 7.76493
2 3.26744 7.8641 1.39187
2 1.34938 1.7674 3.58574
2 2.36815 10.2813 4.74499
2 9.82527 10.4989 6.68292
2 2.63038 11.1761 1.49207
2 1.49115 2.02345 9.59843
2 5.69928 3.22915 1.67351
2 1.75522 10.3765 9.63762
2 1.41866 7.75336 4.26023
2 8.63894 1.77451 7.36563
2 3.31304 9.60551 12.0589
2 3.50439 1.29763 3.37314
2 7.61473 3.50956 8.75405
2 9.5342 0.799923 3.01778
2 10.5827 3.03057 2.21661
2 11.3462 4.94054 4.51138
2 1.07174 3.60804 12.5112
2 3.00951 1.0735 5.47247
1 9.54872 8.88259 6.73722
1 4.66181 7.05494 1.24299
1 11.8535 4.82196 8.981
1 7.93837 1.40008 3.05378
1 0.852056 7.80688 8.24837
1 7.07603 9.7165 2.31898
1 8.51395 4.79773 8.76274
1 6.32241 4.17878 2.76373
1 3.29341 5.00889 3.3665
1 7.18715 5.8911 11.2703
1 9.43664 8.54341 4.00006
1 5.33788 10.9796 8.69025
1 11.4411 6.51097 3.68171
1 4.98483 3.04875 12.1826
1 0.946724 4.59079 5.82274
1 9.8424 9.81328 12.063
1 2.43442 7.42891 5.79808
1 3.03848 9.67905 10.2894
1 2.70917 2.36284 4.66905
1 7.63364 1.77306 8.61263
1 3.90211 11.7973 1.91283
1 8.11427 5.93084 6.81319
1 8.9948 6.13691 1.69848
1 1.90135 3.20236 11.099
1 10.9689 3.95504 0.822404
1 9.97989 12.182 6.70075
1 1.55656 9.59596 3.51058
1 1.36692 0.52618 8.64772
1 1.97479 9.44497 1.2382
1 3.04314 10.7361 6.45414
1 9.01705 1.58865 11.4984
1 10.843 1.67955 3.28477
96
 Atoms. Timestep: 22000
2 4.28863 8.27357 6.03597
2 3.79331 10.545 7.68603
2 11.0472 4.28879 6.6202
2 11.1946 9.2347 12.5155
2 9.30043 5.31511 8.44498
2 7.34636 11.2963 2.36535
2 11.0235 8.2434 8.10515
2 5.45806 4.77466 2.66051
2 9.23914 8.93683 6.57425
2 6.15192 8.49094 2.04878
2 2.54141 5.64312 6.38673
2 7.80436 1.8256 0.99294
2 1.70691 3.26563 6.15571
2 8.5491 8.95663 1.7011
2 6.53492 5.24373 9.29488
2 4.1422 1.95082 12.1748
2 8.93989 7.64264 3.46767
2 4.31124 10.7469 9.74145
2 2.6546 7.56598 7.10656
2 5.09174 4.74333 10.7244
2 1.07709 6.13984 7.69453
2 6.92747 2.72054 2.76734
2 7.62095 6.59038 10.8421
2 4.45633 7.01872 2.72784
2 8.84478 8.53142 9.14441
2 5.85078 10.4812 1.3493
2 11.528 4.86983 9.49009
2 10.6963 5.66332 2.40824
2 2.46339 8.2871 9.28945
2 2.78818 5.88016 2.82175
2 7.8496 1.3191 9.72468
2 8.36017 5.02951 2.93454
2 4.26311 3.39643 3.79196
2 4.77062 6.95604 11.9602
2 4.79045 5.83395 4.97828
2 5.89299 0.696696 7.69136
2 6.46 5.17032 12.6446
2 2.98168 3.44134 11.2346
2 7.77271 9.79364 3.97463
2 8.80121 10.3239 11.2304
2 8.57452 4.0497 1.23837
2 5.2131 2.13471 9.38247
2 9.50775 1.7537 11.5633
2 10.8469 0.694595 5.23575
2 10.5434 9.0724 4.73465
2 11.063 1.78441 7.73954
2 3.22516 8.66089 1.45817
2 1.64256 1.67784 3.68744
2 2.219 8.76016 5.35854
2 10.0029 10.8718 8.0064
2 2.68992 10.6529 1.18327
2 1.88997 2.61662 9.59476
2 5.9971 3.2504 0.699655
2 3.27286 2.11025 7.88287
2 0.883728 7.76514 3.24375
2 8.70186 0.988396 6.70563
2 1.87444 9.83008 11.1424
2 4.14767 1.16687 2.69002
2 7.73532 3.05018 8.23829
2 9.61427 0.855691 3.39459
2 10.5853 2.37762 2.28583
2 0.613739 5.5876 4.57131
2 10.9709 3.58439 11.6764
2 2.91544 11.3756 5.24507
1 9.65562 9.29204 8.07448
1 4.7539 7.99367 1.42999
1 10.8635 5.10901 7.85235
1 7.9757 1.54938 2.67733
1 1.39252 7.67274 8.23273
1 7.21353 9.6602 2.44514
1 7.70836 4.53918 8.35823
1 6.84259 4.06298 1.90584
1 4.16138 5.25978 3.55725
1 6.07472 5.86894 10.9931
1 8.86957 8.80495 4.62093
1 4.60819 0.832002 8.62045
1 1.19628 6.23948 3.15389
1 4.66186 3.04326 10.9381
1 1.44341 4.77481 5.5762
1 9.59945 9.15385 12.0533
1 3.99022 6.79337 6.12614
1 3.1355 9.66878 9.96963
1 3.21356 1.62409 4.16127
1 7.65078 1.5755 7.9212
1 4.12964 11.4291 1.08369
1 8.8345 7.80193 10.6714
1 9.36145 6.14588 3.19353
1 1.23873 4.05589 10.5837
1 9.74927 3.0748 0.980797
1 10.4553 11.7808 6.80199
1 0.857401 8.813 4.28837
1 1.50222 2.38703 8.04736
1 1.71961 9.33106 0.99232
1 3.41223 9.82553 6.11875
1 8.0438 0.78269 11.1985
1 11.2808 1.22173 3.44363
96
 Atoms. Timestep: 24000
2 2.84935 8.3627 5.67947