96
 Atoms. Timestep: 0
2 0 7.95642 4.74695
2 4.63304 0 11.358
2 0 4.63304 4.74695
2 7.95642 0 11.358
2 0 4.63304 8.47514
2 7.95642 0 1.8641
2 0 7.95642 8.47514
2 4.63304 0 1.8641
2 10.7421 8.43088 6.61105
2 4.15858 10.7421 0
2 1.84736 4.15858 6.61105
2 8.43088 1.84736 0
2 1.84736 8.43088 6.61105
2 8.43088 10.7421 0
2 10.7421 4.15858 6.61105
2 4.15858 1.84736 0
2 10.5201 6.29473 5.04003
2 6.29473 10.5201 11.6511
2 2.06934 6.29473 5.04003
2 6.29473 2.06934 11.6511
2 2.06934 6.29473 8.18207
2 6.29473 2.06934 1.57102
2 10.5201 6.29473 8.18207
2 6.29473 10.5201 1.57102
2 10.1594 8.65935 9.20274
2 3.93011 10.1594 2.59169
2 2.43004 3.93011 9.20274
2 8.65935 2.43004 2.59169
2 2.43004 8.65935 9.20274
2 8.65935 10.1594 2.59169
2 10.1594 3.93011 9.20274
2 3.93011 2.43004 2.59169
2 2.43004 3.93011 4.01936
2 8.65935 2.43004 10.6304
2 10.1594 8.65935 4.01936
2 3.93011 10.1594 10.6304
2 10.1594 3.93011 4.01936
2 3.93011 2.43004 10.6304
2 2.43004 8.65935 4.01936
2 8.65935 10.1594 10.6304
2 0 10.703 0
2 1.88643 0 6.61105
2 0 1.88643 0
2 10.703 0 6.61105
2 0 0 1.872
2 0 0 8.48305
2 0 0 11.3501
2 0 0 4.73905
2 11.2706 2.31295 2.18973
2 10.2765 11.2706 8.80078
2 1.31887 10.2765 2.18973
2 2.31295 1.31887 8.80078
2 1.31887 2.31295 2.18973
2 2.31295 11.2706 8.80078
2 11.2706 10.2765 2.18973
2 10.2765 1.31887 8.80078
2 1.31887 10.2765 11.0324
2 2.31295 1.31887 4.42131
2 11.2706 2.31295 11.0324
2 10.2765 11.2706 4.42131
2 11.2706 10.2765 11.0324
2 10.2765 1.31887 4.42131
2 1.31887 2.31295 11.0324
2 2.31295 11.2706 4.42131
1 11.0086 7.83654 8.10972
1 4.75292 11.0086 1.49867
1 1.5809 4.75292 8.10972
1 7.83654 1.5809 1.49867
1 1.5809 7.83654 8.10972
1 7.83654 11.0086 1.49867
1 11.0086 4.75292 8.10972
1 4.75292 1.5809 1.49867
1 1.5809 4.75292 5.11238
1 7.83654 1.5809 11.7234
1 11.0086 7.83654 5.11238
1 4.75292 11.0086 11.7234
1 11.0086 4.75292 5.11238
1 4.75292 1.5809 11.7234
1 1.5809 7.83654 5.11238
1 7.83654 11.0086 11.7234
1 10.1088 10.1088 3.30552
1 2.48067 10.1088 9.91657
1 2.48067 2.48067 3.30552
1 10.1088 2.48067 9.91657
1 2.48067 10.1088 3.30552
1 10.1088 10.1088 9.91657
1 10.1088 2.48067 3.30552
1 2.48067 2.48067 9.91657
1 0 1.60471 1.57853
1 10.9848 0 8.18958
1 0 10.9848 1.57853
1 1.60471 0 8.18958
1 0 10.9848 11.6436
1 1.60471 0 5.03252
1 0 1.60471 11.6436
1 10.9848 0 5.03252
96
 Atoms. Timestep: 2000
2 11.9433 8.4117 4.53264
2 4.67647 12.7477 11.9312
2 12.5169 4.28988 4.33005
2 8.05661 -0.0813276 12.0213
2 0.020864 4.83074 7.69693
2 7.3948 -0.0291839 2.54238
2 -0.00176929 7.97272 9.10671
2 4.45165 12.724 1.33089
2 9.50346 7.10296 6.67647
2 3.73442 10.7871 13.0787
2 1.72689 4.18903 6.59073
2 7.79831 1.76578 0.523432
2 1.41539 8.39652 6.45931
2 7.68125 10.5395 0.0767113
2 11.2618 4.11606 6.3116
2 4.29626 1.6222 13.1583
2 9.87419 5.95432 4.82017
2 6.39781 11.3121 12.3312
2 1.20032 6.35875 4.32054
2 6.64074 1.93953 11.8022
2 1.41936 6.71368 7.65048
2 5.63613 1.76955 1.65979
2 10.8251 6.07044 8.13887
2 6.2088 10.4757 2.06167
2 10.506 8.52066 9.42252
2 3.62761 10.2357 2.21764
2 2.10127 3.92514 8.95043
2 8.52989 2.21686 3.37727
2 5.44764 10.1389 8.39438
2 8.80394 10.7883 2.29843
2 10.89 4.22866 9.13588
2 3.26003 1.67177 2.00087
2 2.24866 3.29071 4.2547
2 9.34601 2.83789 11.5934
2 10.0296 9.5344 4.38728
2 4.23098 10.3477 10.4913
2 10.1226 3.48323 4.00706
2 4.40454 2.93806 10.6702
2 0.955113 9.18764 3.6314
2 8.91442 10.0146 11.4456
2 12.0578 10.7809 -0.248905
2 2.19437 12.7726 6.2225
2 0.0674048 1.58229 0.0872035
2 11.5614 12.7546 7.22741
2 0.0235034 4.3058 1.94921
2 0.310942 12.7792 8.39806
2 12.0103 12.4379 10.4262
2 12.7425 12.6083 4.91238
2 11.0452 1.97519 1.55152
2 10.5442 10.8106 9.15772
2 1.24304 9.42207 1.51814
2 2.82204 1.4301 8.42042
2 0.669608 1.85826 2.53926
2 2.80874 11.3549 8.5972
2 11.3295 10.7219 1.81448
2 8.81732 1.95752 9.68722
2 2.96251 8.56271 9.06853
2 2.1263 0.676516 4.12601
2 11.8605 1.78399 11.1962
2 11.0315 11.6155 4.20234
2 11.6004 10.2662 11.1585
2 10.1441 1.18764 4.8795
2 1.3494 1.96661 10.7395
2 1.71913 11.0843 3.77627
1 11.4983 7.52572 8.83273
1 4.69684 10.8762 1.20833
1 1.89532 5.1204 7.83783
1 7.35216 1.52992 2.06894
1 1.2843 8.08306 8.21197
1 7.46848 11.5049 1.85499
1 11.5175 4.72723 7.78352
1 4.41378 1.21281 0.912692
1 1.1531 4.69431 4.94206
1 8.11663 1.95337 12.6137
1 10.2306 7.7219 5.26607
1 4.67768 11.1676 11.7537
1 10.9935 4.43015 4.95938
1 5.08753 1.4937 11.7043
1 0.684411 7.97841 5.17423
1 8.06769 11.187 12.2903
1 10.2975 10.5671 2.90143
1 3.9418 9.9041 8.83976
1 2.23713 2.04761 3.44733
1 10.3921 2.79002 10.0744
1 2.07892 9.93813 2.70728
1 10.0783 9.66749 10.5221
1 10.2047 1.96896 3.37882
1 2.65174 2.49295 9.81927
1 -0.292203 2.51512 1.40312
1 11.4215 12.5275 8.96541
1 -0.296143 9.75495 0.899573
1 2.27401 -0.00124155 8.14192
1 12.474 11.2815 12.0075
1 1.34926 12.4768 4.85253
1 0.209654 1.54725 12.0846
1 11.1981 0.141408 5.55105
96
 Atoms. Timestep: 4000
2 12.4504 8.87108 4.91933
2 4.98415 12.109 11.0127
2 11.6979 4.79354 4.53619
2 7.44863 12.0942 12.4932
2 0.379091 4.95637 7.93248
2 7.06587 0.641385 1.76313
2 1.29242 8.30678 8.45115
2 5.0258 12.4847 0.526265
2 11.5688 8.51744 7.11674
2 3.65703 10.3187 12.9185
2 1.53556 4.34392 6.15992
2 8.47505 1.33967 -0.303627
2 2.12256 7.44999 6.2853
2 10.5464 9.81336 11.9381
2 10.3983 4.52477 6.982
2 4.00014 1.03705 12.0076
2 10.1585 7.1145 4.96381
2 5.77989 10.3669 12.8104
2 0.710241 6.01223 4.57575
2 6.87286 1.04097 11.5409
2 3.59015 4.41777 7.89301
2 5.74022 1.95038 0.630011
2 11.2745 6.46832 8.50882
2 5.32659 11.4364 2.12805
2 11.919 8.29773 9.94673
2 3.16276 10.0232 1.88004
2 1.80659 3.35069 9.10832
2 8.20879 2.70062 1.85997
2 5.05553 12.1296 8.52966
2 8.35665 11.0429 2.82694
2 11.1067 3.63895 9.3969
2 2.88646 2.3618 1.05773
2 0.861177 2.98872 3.8166
2 9.6154 1.54966 11.0375
2 9.42663 9.66923 5.3916
2 5.15361 10.1772 9.70721
2 9.68019 4.69166 3.78744
2 4.56833 1.93948 10.059
2 1.94432 8.78701 3.95485
2 8.14614 9.30431 -0.121655
2 12.0284 10.4856 4.25235
2 1.88183 0.329013 5.87935
2 0.591208 0.727793 -0.0424198
2 11.0581 1.58331 7.09202
2 11.143 12.0826 0.280389
2 0.295553 12.4861 8.55184
2 0.682214 12.5869 11.4105
2 0.434256 12.2827 4.41568
2 10.4037 2.24634 1.779
2 12.2321 10.4021 10.4028
2 0.516356 10.4822 1.6829
2 2.54898 1.6414 8.37501
2 11.9066 0.154249 2.52259
2 2.95532 11.5071 7.58341
2 11.6323 12.9416 5.40991
2 11.4924 1.59801 8.48936
2 3.61938 9.3048 7.17009
2 2.41309 1.15407 3.23464
2 12.1065 1.95392 11.387
2 9.22473 12.6523 5.0873
2 9.74328 12.0407 11.7162
2 9.87634 2.29423 4.94313
2 1.85277 2.26919 10.9661
2 2.40692 11.1803 3.51819
1 12.3464 7.96402 8.55009
1 4.1436 11.094 1.15899
1 1.98634 4.57313 7.91888
1 7.29101 1.75984 0.894429
1 2.70321 7.9171 7.61363
1 6.96933 11.6702 2.1024
1 11.5445 4.80179 8.30479
1 4.06906 1.21717 0.257024
1 0.609988 4.38047 4.83773
1 8.52957 0.660988 11.8453
1 10.608 8.5155 5.81763
1 4.50948 10.3813 11.4178
1 10.1582 5.04022 5.21905
1 5.32482 0.97775 10.8172
1 0.976013 7.60646 4.95124
1 7.14832 10.6677 13.3283
1 8.77172 10.8121 4.48365
1 4.22363 10.5826 8.17342
1 2.28889 2.71392 2.59169
1 10.9927 1.93604 10.0051
1 1.90218 10.0792 2.7186
1 10.9103 9.40725 10.4153
1 9.55284 2.86346 3.12708
1 3.10219 2.36897 9.79648
1 11.7225 0.949833 0.939474
1 12.7603 11.9332 9.94703
1 11.8241 12.1739 3.82478
1 1.81876 0.111332 7.56702
1 10.0274 10.9061 13.0083
1 2.21007 -0.199708 4.12078
1 0.690701 1.32402 11.8266
1 10.1233 0.878673 5.98918
96
 Atoms. Timestep: 6000
2 0.912776 9.44687 4.14452
2 4.34798 9.74511 11.5738
2 11.4452 4.57933 4.78499
2 8.49637 11.1007 9.66787
2 0.507867 3.45227 7.29517
2 7.94849 12.1571 0.463384
2 11.744 7.42514 9.25449
2 4.27631 12.2175 12.713
2 10.0329 8.24421 7.92094
2 1.6712 9.867 11.9111
2 1.49098 5.18359 6.27442
2 7.55067 1.94155 12.6973
2 1.07184 8.50425 6.57967
2 12.1906 10.6537 12.7826
2 9.51467 3.43581 6.795
2 3.73663 2.75753 12.3617
2 7.43063 8.58167 6.81643
2 7.23939 9.5191 10.4275
2 1.15578 6.88617 5.20823
2 6.15225 3.83388 11.0685
2 0.870065 6.02806 8.14381
2 5.41741 1.77346 1.30369
2 10.8898 5.24514 8.58895
2 8.58871 10.0979 12.3955
2 10.9101 9.77733 10.3586
2 3.39301 10.7014 1.60134
2 2.93031 3.19991 8.00202
2 6.96408 1.98249 2.75291
2 3.37729 8.03896 6.58458
2 9.19331 10.5036 2.77028
2 10.269 2.94077 8.57031
2 3.19054 1.8776 2.01696
2 1.6672 3.76493 4.29272
2 8.29722 2.44136 9.91807
2 9.884 9.46366 5.13208
2 5.57587 8.95032 8.94236
2 8.94446 3.25599 3.89762
2 4.1051 5.00081 10.3659
2 3.52302 8.45575 4.39126
2 9.18919 8.03578 10.0875
2 0.554458 2.11514 4.16202
2 3.53462 12.3238 6.17877
2 12.2388 2.23283 12.3316
2 8.93773 0.954273 7.80744
2 12.1237 0.605159 1.2309
2 2.22253 11.1949 7.66504
2 0.803667 0.341409 10.077
2 2.8885 5.62255 8.20109
2 6.17132 3.2763 5.08611
2 0.989631 9.84062 9.51855
2 1.41369 0.467985 5.85892
2 3.76579 0.704995 8.40742
2 0.881313 2.88624 1.99993
2 4.32 10.3716 8.11843
2 11.0818 1.68998 6.43519
2 8.96582 0.218682 9.69598
2 2.54263 7.77498 8.58263
2 3.11803 1.2972 3.91067
2 11.1174 1.48762 9.61541
2 10.2447 12.1974 5.0364
2 11.8478 10.2367 1.86493
2 8.31987 1.35932 5.31928
2 1.97961 2.13585 10.3735
2 2.86439 10.4311 3.96954
1 10.1979 6.82343 9.10736
1 3.117 10.7423 12.6796
1 1.77018 4.5883 7.71381
1 6.95991 1.11081 1.1328
1 0.811461 7.6085 7.97019
1 8.97582 10.8185 0.947506
1 11.0026 3.94879 7.61909
1 4.13033 1.55418 0.575944
1 0.532572 5.06024 5.20008
1 7.52471 2.84973 11.378
1 9.19515 8.63798 6.37172
1 5.64213 8.90045 10.4986
1 9.84216 3.94734 5.02465
1 4.46712 3.4213 11.2
1 2.21055 8.33965 5.38606
1 8.93027 9.81117 10.7304
1 9.88399 10.7946 4.31751
1 4.15646 8.4571 7.93255
1 1.95487 2.25194 3.14043
1 9.42136 1.61403 9.27183
1 3.68805 9.5445 2.89022
1 0.322764 9.93541 11.0727
1 7.54095 2.43716 4.20944
1 3.02839 2.00501 9.06956
1 12.0189 2.06448 1.00652
1 0.763288 11.329 8.73634
1 0.678382 2.10817 6.16254
1 3.87682 11.6624 7.58508
1 11.3635 11.47 0.884174
1 2.5562 12.3327 4.79141
1 0.172736 1.69343 10.6667
1 9.76523 1.00225 5.96924
96
 Atoms. Timestep: 8000
2 0.941297 7.68638 9.18943
2 5.36493 9.81201 11.8392
2 10.6322 3.07688 5.24033
2 8.90319 7.4318 11.6877
2 1.31773 2.40711 4.00646
2 7.99111 10.9067 2.56868
2 2.01076 5.32396 11.8562
2 3.47457 11.3399 12.3018
2 6.63879 9.34883 9.29702
2 2.3418 9.52312 11.3727
2 0.544111 5.09692 4.58781
2 7.53944 0.647053 12.946
2 1.14549 9.9048 8.84856
2 0.843252 12.0943 12.8275
2 8.81193 5.04263 7.01677
2 4.75951 1.86304 11.8846
2 5.41241 8.15179 8.17617
2 4.86054 4.62381 11.5128
2 10.1479 6.18331 2.69194
2 6.41332 1.79177 10.4943
2 3.13291 6.11562 9.3847
2 5.47532 11.9614 1.57313
2 7.91683 6.80944 8.50559
2 9.94083 8.61891 1.74599
2 11.7338 9.36281 0.173671
2 3.38329 9.01742 1.37841
2 2.5363 4.37473 6.41559
2 6.99252 1.80208 2.74012
2 4.60629 9.51103 8.38681
2 7.90444 8.96675 3.76699
2 9.11458 4.01027 9.53297
2 3.20655 0.93231 1.38441
2 1.25292 5.72265 2.20657
2 8.63231 1.8279 10.1675
2 7.25887 9.02077 6.80525
2 4.99357 11.1264 9.96307
2 6.58765 3.40702 5.90945
2 4.0675 2.48237 10.0894
2 5.18345 7.83019 2.35669
2 11.3343 6.95017 11.789
2 1.78546 3.55599 1.61901
2 3.40439 11.8854 5.00465
2 1.69133 3.17637 8.74573
2 9.06092 1.45986 7.07876
2 1.69843 2.01151 11.3813
2 2.6348 11.4336 9.35542
2 0.630528 0.94089 8.45719
2 2.20566 7.4236 7.33304
2 5.12713 2.11379 4.68389
2 0.327109 11.264 10.8149
2 1.44724 11.4681 5.16568
2 3.02707 2.48243 6.20665
2 4.39876 4.83065 1.99365
2 4.7559 12.0139 7.02042
2 10.9738 1.1669 4.31104
2 7.73153 7.66608 10.5219
2 2.48065 9.50019 6.73261
2 2.40115 4.35244 4.09697
2 10.5126 2.9812 8.2792
2 8.22783 11.5184 5.61402
2 0.731889 0.878005 2.32129
2 8.01065 1.87913 4.65173
2 12.36 3.3147 6.46986
2 3.94058 9.83844 4.17277
1 12.1818 5.39026 12.2646
1 3.94512 9.0921 12.2299
1 2.48435 5.68026 7.69884
1 7.03888 0.212831 1.97355
1 2.65269 6.29248 10.8464
1 8.78674 9.44233 2.48413
1 8.60263 5.35098 8.69067
1 4.56622 0.741193 0.396493
1 11.7713 5.73127 3.04103
1 7.59766 0.577171 11.0711
1 6.97471 8.3292 8.08518
1 6.67472 10.4542 10.5417
1 9.70877 4.31011 5.61965
1 5.51412 2.98381 10.9582
1 2.12443 8.79575 8.34606
1 10.5565 8.11419 12.4496
1 7.58675 9.90772 5.44587
1 4.13901 11.1755 8.20087
1 2.56104 4.85043 2.32988
1 9.01133 2.46775 8.89324
1 4.48716 9.58753 2.37138
1 1.14259 10.4954 12.012
1 6.58329 2.65748 4.26429
1 1.60316 3.52722 5.33015
1 2.37355 2.88593 10.3573
1 1.159 11.7884 9.49174
1 0.657265 0.728334 3.99328
1 4.17718 1.2955 5.87708
1 1.68585 1.67312 0.645481
1 2.77908 10.4472 5.49504
1 12.278 2.79928 8.08178
1 9.3727 0.895847 5.23679
96
 Atoms. Timestep: 10000
2 4.44748 8.04727 7.73256
2 5.45855 8.88941 11.1707
2 9.00021 7.08887 4.44753
2 11.7704 9.36544 11.7105
2 2.31464 2.12485 5.04337
2 7.81529 10.4 0.844774
2 11.8804 4.7674 11.6454
2 5.6278 10.1689 12.8363
2 7.8472 8.09426 9.7047
2 3.20543 10.5185 11.968
2 11.2716 5.29617 3.41881
2 6.66123 12.2266 11.8116
2 2.20261 9.311 8.55492
2 1.13248 0.784197 0.768459
2 11.6935 5.23548 5.77877
2 5.12944 3.0342 11.7403
2 5.48879 7.88519 8.72257
2 6.69743 3.96726 9.50611
2 8.21727 4.90621 3.49294
2 5.46712 1.62462 9.70145
2 1.10851 5.51192 8.94577
2 5.43489 0.76703 1.22392
2 8.18736 5.85814 9.01368
2 9.71207 8.57535 1.23326
2 0.493289 9.39253 1.94829
2 2.98172 8.19254 0.60588
2 1.54089 4.5033 6.44536
2 8.25405 1.71119 1.86715
2 3.93915 0.947253 6.72125
2 7.9711 8.83627 3.2841
2 8.84276 3.03717 8.60689
2 3.27783 2.14993 1.97842
2 9.73795 5.63362 1.66296
2 7.52244 0.761927 9.0837
2 8.02228 7.14833 6.26156
2 7.90162 8.16283 0.538212
2 10.1181 2.67304 6.39133
2 3.41505 2.02385 9.95526
2 1.99325 6.8783 2.59412
2 11.523 7.1284 12.3285
2 1.44769 3.94158 2.04039
2 6.53358 6.07221 7.14004
2 0.718661 2.1024 10.3571
2 9.05547 0.817544 6.60462
2 1.57024 2.63655 12.6748
2 2.83259 11.4861 8.88955
2 12.6057 12.2375 8.70946
2 2.00463 7.28375 7.01613
2 6.01852 3.21446 1.77112
2 1.64105 11.5316 10.8036
2 0.982172 11.4175 5.59363
2 4.614 4.30106 5.55904
2 0.261561 5.68556 1.49869
2 4.68541 4.12984 8.43878
2 10.6485 1.33721 4.88406
2 0.885569 9.66848 10.8249
2 2.84775 9.02754 5.91259
2 2.50196 4.90325 3.90017
2 10.2957 1.02444 9.01048
2 7.60336 9.24461 6.18024
2 0.387851 1.82296 3.52447
2 8.34338 2.75986 4.51716
2 11.893 2.93696 8.22201
2 2.14387 9.52863 3.16392
1 11.1876 5.38898 13.015
1 4.1083 8.99922 12.1713
1 1.8931 5.71069 7.56635
1 6.30686 11.4234 0.691683
1 0.41656 4.62854 9.98483
1 8.20302 9.00181 1.72671
1 8.18041 4.07404 9.82001
1 4.94297 2.27317 0.763242
1 9.65252 5.81564 3.3277
1 6.57107 0.518093 10.4494
1 7.4084 7.23522 8.03348
1 7.20177 8.79422 11.3273
1 11.6742 3.55819 6.62127
1 5.15724 3.15695 9.84969
1 2.98767 8.3853 7.66491
1 11.3609 8.49333 0.455859
1 8.19163 8.23067 4.79721
1 3.62594 0.950627 8.47588
1 0.979757 5.3804 2.86081
1 8.83371 1.28416 8.41799
1 2.67478 8.22265 2.09689
1 1.65209 11.3546 12.5292
1 7.63844 3.20832 3.00304
1 3.03284 3.64339 4.9748
1 2.07058 2.92846 11.1741
1 1.49784 10.6401 9.27128
1 0.411974 1.02818 4.84564
1 5.05875 4.90035 7.03729
1 1.31357 2.09711 1.95339
1 1.80155 9.91939 4.77129
1 11.7642 1.52874 9.18873
1 9.19152 1.41979 5.29693
96
 Atoms. Timestep: 12000
2 2.01908 10.1033 10.5657
2 5.76425 8.29936 11.66
2 8.58755 6.0326 3.98594
2 2.02356 10.359 0.976765
2 2.07947 1.23512 5.28563
2 8.69909 9.53091 1.9502
2 10.2158 5.6237 11.523
2 4.13441 10.3743 2.27848
2 6.73377 6.47275 9.23994
2 4.40167 10.5021 11.9176
2 11.3362 4.67899 2.65209
2 4.6989 9.10561 5.79635
2 11.9437 11.1959 9.76651
2 3.79427 0.979177 0.860784
2 12.0776 6.25799 7.71296
2 6.48443 3.53073 11.4255
2 3.08873 0.789536 10.4228
2 10.6463 5.13077 4.97572
2 9.65939 3.6302 2.80597
2 6.58075 2.51307 9.11122
2 1.51548 5.8176 9.94351
2 7.70413 1.05112 2.15023
2 7.62802 4.19919 7.96574
2 10.6288 8.3585 1.48829
2 1.16955 8.44179 2.60417
2 3.26406 8.30294 1.52379
2 3.25181 5.60941 8.17742
2 6.11233 9.84256 2.97453
2 3.34956 2.85072 7.85758
2 8.59496 8.43639 4.03132
2 7.35724 1.20732 7.22372
2 5.07429 2.98991 2.08852
2 9.09269 6.54619 1.87047
2 7.16019 10.5114 4.59485
2 8.45425 6.57664 6.89842
2 7.2142 6.28529 11.8178
2 1.00189 3.75279 6.11781
2 2.17284 4.10972 10.9954
2 1.74437 6.39019 3.28547
2 1.72112 5.47959 0.659088
2 2.1513 3.09367 2.81327
2 5.71291 5.41337 6.72301
2 11.105 3.62902 10.8536
2 9.17902 11.8273 4.77222
2 2.86745 2.68386 12.3028
2 0.849999 2.15274 8.41388
2 10.3746 1.62296 9.78209
2 1.59902 8.46627 9.22579
2 7.38865 2.68461 1.11166
2 12.2478 1.75075 11.3708
2 2.27771 10.6145 5.16513
2 3.49954 3.55953 5.98885
2 7.28285 4.78213 1.19145
2 4.57191 3.9322 9.359
2 11.5025 10.7965 2.92426
2 10.0899 11.1894 12.3621
2 2.79859 10.0596 7.60859
2 2.3669 4.52841 4.15925
2 9.59335 2.97534 7.98921
2 6.97868 8.3994 5.28764
2 3.28357 0.923627 3.15732
2 9.81776 1.06786 2.47023
2 11.7884 4.37915 8.3777
2 2.72696 8.73634 4.541
1 8.62008 5.58682 12.1919
1 5.09385 9.31169 1.16941
1 1.90942 6.9826 8.75651
1 7.7306 10.6285 2.68488
1 11.9415 5.8715 11.4345
1 9.22166 8.25825 2.43034
1 8.00055 2.58728 7.98549
1 6.1553 3.59481 1.21466
1 9.91204 5.2899 3.32034
1 5.97445 9.30741 4.76915
1 7.02728 5.74345 7.51719
1 6.3721 6.95916 10.7105
1 0.508908 5.09158 6.46767
1 5.9674 3.58526 10.0991
1 1.43169 10.1969 8.94145
1 11.9116 9.8265 1.61404
1 8.27937 7.30304 5.21663
1 2.60129 1.26103 8.66758
1 1.59317 5.07716 2.43082
1 8.03691 11.5773 5.79104
1 2.63247 7.93308 3.14867
1 2.89075 11.2797 12.0073
1 8.68426 2.27625 2.03091
1 2.23168 3.08933 5.27775
1 1.06669 3.21545 11.9482
1 11 11.8904 11.0005
1 1.89952 11.4741 3.80438
1 4.22304 4.22185 7.51398
1 3.46824 2.32302 2.01365
1 2.99268 9.5897 5.99166
1 10.9698 3.19616 9.158
1 9.86903 11.1045 3.50907
96
 Atoms. Timestep: 14000
2 2.65979 10.4804 9.5728
2 5.36001 7.54889 10.3024
2 7.87692 6.06832 4.41811
2 10.135 10.1639 11.2882
2 3.29815 2.51803 7.40077
2 8.32647 9.44791 2.8088
2 9.22413 7.53654 11.0685
2 5.22436 10.308 10.6833
2 5.51928 5.17843 8.63845
2 6.51812 0.736968 1.31343
2 11.4007 5.50238 3.53092
2 5.06985 10.3595 5.34639
2 1.43492 11.2089 7.95947
2 5.02101 1.1116 11.3449
2 11.784 5.87233 7.57566
2 6.97615 3.24038 11.294
2 3.77892 1.38215 9.22437
2 10.0696 5.20894 5.63811
2 9.41178 4.05934 3.04375
2 7.75734 1.06553 10.0396
2 10.8555 8.05013 9.61332
2 10.1487 2.25387 0.666841
2 7.16511 3.18828 7.75682
2 10.6686 7.72068 2.72181
2 2.61647 7.848 1.7892
2 4.78098 8.00645 1.44728
2 1.12359 6.00228 9.46166
2 6.40752 9.20865 0.660228
2 2.47513 3.94321 9.3173
2 6.98971 8.19365 5.86199
2 7.37829 0.304758 7.48834
2 5.15367 3.70835 12.3468
2 7.87131 7.23349 1.66929
2 6.43872 10.1426 3.7017
2 5.97797 5.73732 6.17586
2 7.02575 5.82487 10.7749
2 2.08716 4.36373 5.36615
2 1.16061 3.74482 1.70528
2 3.05165 6.124 2.88519
2 11.6236 8.26586 12.2534
2 1.68099 4.22408 3.9775
2 3.89873 5.43872 10.4963
2 1.98425 3.46497 11.136
2 9.48775 11.2237 4.90277
2 2.61364 1.32889 1.89517
2 1.0208 1.99931 8.80753
2 9.88152 1.97798 10.4161
2 1.65488 8.75812 9.00041
2 7.60633 3.002 1.88815
2 11.8205 1.0183 0.92875
2 2.50947 10.6784 4.48385
2 4.55849 4.09273 6.37015
2 8.39714 5.0325 0.650604
2 2.15855 5.20959 0.366347
2 0.937634 11.5476 3.53379
2 8.91331 10.9531 1.24048
2 3.32139 9.95737 6.80657
2 3.19636 2.23869 4.42872
2 9.58468 1.82785 8.02136
2 5.50611 7.01116 3.85398
2 5.70711 1.84228 2.25456
2 9.91414 1.82336 3.26982
2 10.6408 3.68879 7.7558
2 3.42085 8.73589 3.8451
1 8.02922 6.64131 12.0276
1 5.12177 8.54339 11.5863
1 0.773898 7.35181 8.70294
1 7.34166 10.5012 1.96698
1 10.4417 8.60214 11.0362
1 9.09604 8.29076 2.38893
1 7.80684 1.72669 8.09498
1 7.0816 4.03423 0.816751
1 9.74775 5.35049 4.13945
1 6.41755 9.70824 5.434
1 6.25316 4.50804 7.1209
1 5.5845 5.8643 10.1363
1 11.8335 4.5789 6.67724
1 6.83243 1.35927 11.267
1 2.50727 9.98712 8.10251
1 1.09607 8.20799 1.95004
1 6.63544 6.6848 5.02361
1 2.61505 2.38389 8.82557
1 1.86525 5.10109 2.42272
1 8.30556 10.893 6.27705
1 4.14699 7.57901 3.01016
1 4.18116 11.3621 10.124
1 9.32782 2.8059 2.03133
1 3.1878 3.12515 5.88638
1 1.82309 2.30136 0.771974
1 10.1775 0.69923 11.9299
1 2.48245 0.842076 3.47003
1 2.27108 5.26321 10.593
1 4.46556 2.19583 0.817354
1 3.46638 9.82331 5.23982
1 10.6355 2.45198 8.92967
1 10.6018 11.7687 3.72161
96
 Atoms. Timestep: 16000
2 3.8134 10.9381 8.34793
2 5.52904 7.41425 11.3576
2 7.04753 7.39103 3.96095
2 11.3308 1.60985 6.80128
2 2.12882 1.50005 7.26388
2 7.29724 9.48248 2.63136
2 9.95539 6.80355 12.0738
2 4.2726 9.61948 10.8904
2 6.62491 6.6319 9.39358
2 8.00013 11.3022 12.4503
2 0.897111 5.12652 2.5146
2 4.72796 8.6947 4.4053
2 1.33048 10.9507 8.58943
2 4.7981 1.17532 11.0227
2 11.5154 6.24528 7.74663
2 7.36516 2.48943 11.2937
2 6.19393 11.5648 10.128
2 9.92714 7.10283 2.87019
2 9.73688 4.41566 2.64924
2 8.22361 1.60439 9.18801
2 11.5486 8.30137 9.77777
2 11.1531 2.12949 2.11319
2 6.13387 2.46711 7.11918
2 9.29398 9.33289 2.38412
2 0.589301 9.32939 2.30105
2 3.29125 8.2186 0.913889
2 2.09391 6.28128 9.28737
2 6.20832 9.17351 0.748742
2 2.22502 3.62735 9.324
2 6.83933 7.57371 6.30162
2 7.92343 0.702741 6.38235
2 6.1668 2.04396 1.12647
2 7.68496 7.17337 1.35842
2 4.67358 6.26524 4.87321
2 4.99777 4.65603 8.98362
2 6.75902 5.66091 11.6135
2 1.00332 4.77014 5.46247
2 2.05157 3.45337 1.98683
2 1.79099 6.90716 1.66879
2 11.4708 9.01708 12.1707
2 2.89698 5.04043 3.39133
2 4.0277 5.27491 11.1808
2 3.07247 1.97581 0.834198
2 10.2194 10.9285 5.45054
2 2.07339 1.23398 3.00452
2 0.625245 1.30549 8.91822
2 10.5928 2.09436 9.90322
2 2.14814 8.33827 7.95059
2 8.63609 2.62802 1.75107
2 1.1029 1.56509 11.9248
2 3.65944 11.7999 4.53261
2 3.81212 4.21099 6.25716
2 8.12105 4.38812 0.804431
2 2.05504 4.87237 12.2353
2 1.06276 1.02414 5.16672
2 10.6064 11.2397 0.726904
2 3.65749 10.5229 6.05895
2 2.72452 3.19157 4.44526
2 4.27359 2.1214 8.31766
2 7.74217 9.43758 7.14026
2 5.55075 11.5042 1.32012
2 9.91709 2.02271 4.3312
2 10.5575 3.62269 7.4798
2 3.25914 9.51684 3.04641
1 8.21621 6.15086 12.4041
1 4.73506 8.60829 12.1454
1 1.18006 7.35214 8.4141
1 6.78568 10.6558 1.46536
1 10.9527 7.87243 11.2745
1 8.18272 7.80947 2.591
1 7.51208 1.47222 7.64805
1 7.28215 3.02555 0.61579
1 10.7486 5.60775 2.53798
1 5.77806 7.47087 5.04133
1 4.98108 3.48643 7.76606
1 5.58269 5.76242 10.3003
1 11.5688 4.77847 6.89825
1 7.86805 0.934863 10.7922
1 2.59657 9.90675 7.63561
1 10.6322 9.76504 1.35996
1 7.05915 7.9098 8.0747
1 2.45209 2.0838 8.83944
1 2.23955 5.33734 1.7661
1 8.63201 10.596 6.30346
1 2.24405 8.7408 2.18953
1 4.67904 11.0074 10.051
1 10.0235 2.62214 2.94333
1 2.5514 4.5795 5.0588
1 1.58612 1.97516 1.52231
1 10.7129 1.08794 11.2787
1 2.59088 1.3129 4.67827
1 2.32289 4.99694 10.3214
1 4.76032 1.25938 0.808087
1 4.05669 10.1459 4.26476
1 10.6104 1.9588 8.05507
1 11.0617 1.01007 5.1501
96
 Atoms. Timestep: 18000
2 3.30582 11.1498 8.2016
2 4.64418 8.04801 10.5934
2 7.18632 7.95783 4.09539
2 1.06996 1.23369 7.48493
2 4.10206 2.09584 7.76413
2 7.5392 7.22893 1.13238
2 9.6375 5.73427 11.7643
2 2.92339 9.09221 9.3994
2 7.42455 7.6286 9.3135
2 7.04609 1.37591 11.5751
2 11.1579 4.97031 3.7243
2 4.87151 8.79331 5.80897
2 0.888826 10.2251 6.65186
2 2.55743 10.9358 10.6975
2 1.06461 6.34571 7.63316
2 9.80236 2.23984 12.3104
2 5.82385 0.957811 8.94104
2 9.93323 4.9291 5.35965
2 9.57021 2.20254 3.69408
2 7.76147 3.3957 9.68992
2 11.0226 7.25987 10.0831
2 10.5756 10.6612 2.76483
2 6.90323 4.53364 7.25427
2 9.59276 8.91322 2.30847
2 11.9277 9.01224 2.08134
2 2.79404 8.94966 0.656038
2 1.76066 6.79134 10.3051
2 4.66568 10.3718 11.6092
2 2.45661 4.26399 9.90752
2 7.21735 8.97353 7.00934
2 8.19301 2.0007 7.7169
2 5.27297 3.20377 9.59878
2 7.54948 6.51544 11.991
2 6.7325 6.51713 5.62681
2 5.67327 6.28502 8.25453
2 6.77285 5.43435 10.2038
2 2.51134 4.88416 6.37088
2 1.2606 3.42817 1.79607
2 0.857661 6.47848 2.11968
2 10.8183 8.47992 12.2737
2 2.32175 4.22414 4.00189
2 4.46605 5.71244 9.97698
2 1.41005 1.46277 12.0291
2 10.1929 11.1862 6.83884
2 2.90695 1.50155 3.01551
2 11.4048 1.6348 10.4112
2 10.1859 1.37174 8.22714
2 0.89123 8.57044 8.09388
2 8.59505 1.42625 2.12265
2 11.4773 1.40622 2.12952
2 3.99469 10.6483 4.37483
2 4.77649 4.31359 5.66675
2 7.85095 3.8264 12.2407
2 3.22233 5.69098 12.5117
2 1.49008 0.580544 4.89595
2 10.582 11.1246 12.8729
2 2.56366 9.27249 6.09014
2 3.19097 2.10647 5.13817
2 4.49939 4.73624 8.07096
2 8.23573 10.423 8.53781
2 4.16457 0.787648 12.0306
2 11.0027 11.8141 4.52284
2 12.0009 3.66895 8.23243
2 3.12686 8.37854 2.78569
1 8.0318 4.99829 11.0614
1 3.30683 9.31177 11.3087
1 0.81324 7.33979 9.10046
1 5.81706 11.7374 12.377
1 10.5062 7.13366 11.4801
1 8.00067 8.17271 2.41379
1 8.07177 3.64107 8.08226
1 8.2909 2.18242 0.609981
1 10.0151 3.85927 4.24287
1 6.29297 8.28839 5.62494
1 5.71525 5.29773 6.62524
1 5.86764 6.7797 9.80213
1 1.03955 4.77661 7.11726
1 6.67797 1.85382 9.94551
1 2.27029 9.70107 7.7882
1 10.6816 9.75649 1.57518
1 8.02909 8.92357 8.33767
1 3.67811 3.51686 8.75199
1 1.19971 4.88113 2.9621
1 8.81466 11.7303 7.78082
1 1.79747 8.12134 1.70539
1 4.7922 11.8296 8.02627
1 10.0734 0.702811 2.99736
1 3.20288 3.64137 5.34815
1 1.90564 2.03702 1.79001
1 11.1892 1.08151 12.0182
1 3.01947 11.8745 4.01472
1 2.87363 5.58997 10.7336
1 2.73806 1.1145 10.9616
1 3.69532 8.93637 4.75746
1 11.9464 2.04965 8.75127
1 11.8435 11.5469 5.96869
96
 Atoms. Timestep: 20000
2 2.37289 10.6074 7.61678
2 3.96531 7.85429 10.0158
2 7.83231 7.01439 3.84936
2 10.984 3.02411 4.73961
2 1.84744 11.3071 9.79584
2 10.61 8.11326 10.3495
2 8.60785 6.29882 11.6902
2 2.45016 9.0738 9.12028
2 6.49948 9.08961 8.66623
2 5.75505 11.683 1.43257
2 1.32575 4.10685 3.01442
2 5.87007 8.89388 4.67841
2 10.2384 1.76197 6.59719
2 1.0391 9.15591 10.6304
2 11.6192 5.56149 9.17692
2 8.13348 11.7489 0.832292
2 4.81659 3.16777 9.82604
2 9.76312 4.76569 3.19605
2 10.5128 2.35693 2.66462
2 11.7758 4.27113 6.50792
2 2.06708 7.16991 10.8131
2 10.2725 10.3026 2.7219
2 8.10265 4.70481 7.08813
2 10.5473 7.21971 3.17147
2 1.24058 8.88819 2.61317
2 2.62792 8.78711 0.557865
2 11.285 4.03811 1.61681
2 4.15009 9.88447 11.7984
2 11.4193 4.60956 10.1527
2 8.04913 9.0018 6.4396
2 10.4446 6.49628 7.36663
2 4.16168 4.46593 11.5642
2 6.12561 2.68047 2.32711
2 5.66198 5.6854 5.60849
2 6.94002 7.04871 8.22913
2 6.3336 7.04555 10.8321
2 5.49063 4.61702 7.26888
2 3.00848 11.5631 12.286
2 2.64375 6.55617 2.34135
2 9.59603 7.97724 1.24563
2 3.79477 3.8454 2.0993
2 11.4274 6.33117 12.4227
2 10.2656 10.5845 11.4221
2 8.2766 3.46023 7.94505
2 3.38923 0.692598 2.9068
2 2.07118 1.36846 7.42174
2 9.11782 1.21189 10.0825
2 1.04353 7.91655 8.11429
2 8.63026 0.965308 2.71817
2 11.7243 0.814607 2.30545
2 3.53173 10.8067 5.02187
2 5.30355 4.51883 4.54687
2 6.29188 4.4456 12.0619
2 2.22163 5.1385 12.459
2 2.0607 1.73516 4.75785
2 0.843783 8.9332 6.0412
2 2.93788 8.61203 6.27421
2 4.68677 2.25354 4.09045
2 4.07228 5.43283 9.78083
2 7.97178 11.5419 8.62351
2 4.20293 1.90997 11.7067
2 10.9853 0.706812 4.38943
2 2.81631 3.92508 7.6856
2 3.7904 8.7378 3.69875
1 7.01054 5.77574 11.6348
1 2.97843 8.8364 10.8042
1 0.684249 7.31666 9.56328
1 4.70893 11.3859 12.0654
1 10.0266 7.17806 11.548
1 9.36185 6.36066 3.86948
1 10.6163 5.14234 7.79248
1 6.95972 1.27789 1.738
1 10.9908 3.56682 3.31461
1 7.33477 8.00691 5.24298
1 6.84696 5.98163 6.90843
1 5.81604 7.67829 9.29188
1 4.39457 4.33947 8.48477
1 5.14201 3.17348 11.4402
1 1.80083 9.2615 7.29255
1 10.9283 8.87645 2.47075
1 7.47603 9.88764 7.71018
1 3.20883 5.7428 10.9248
1 2.6329 4.83179 2.16444
1 8.54666 1.8522 8.42581
1 2.92996 8.35201 2.23778
1 2.56435 11.7885 8.50381
1 10.2609 0.769858 2.72873
1 5.0845 3.6095 3.00889
1 1.96145 11.3697 1.79259
1 9.05607 11.8491 11.473
1 3.55091 1.10215 4.47416
1 0.743799 4.83763 12.1324
1 11.7228 10.5991 10.4476
1 4.14577 9.09707 5.21997
1 1.84947 3.02277 6.73631
1 11.683 1.74631 5.51287
96
 Atoms. Timestep: 22000
2 1.4215 8.80693 7.52816
2 5.21305 9.29278 9.70138
2 7.28731 8.04418 4.30578
2 1.27213 1.6804 6.45047
2 10.9427 10.8172 9.31575
2 9.63963 5.36432 9.1692
2 8.771 8.31648 11.0143
2 3.07199 7.76594 8.2368
2 6.09597 11.0559 9.05657
2 4.64431 11.1653 11.4732
2 2.71184 3.26547 4.15579
2 4.39192 9.44875 4.81634
2 1.00035 10.5547 6.59396
2 10.3244 9.79912 11.6887
2 1.57071 4.68167 8.5302
2 7.30235 2.81797 9.72132
2 5.96118 5.20413 11.1613
2 8.45664 8.41581 2.31335
2 1.64421 2.28508 2.81656
2 3.14188 2.59653 8.12118
2 1.48634 5.73879 10.5022
2 8.83621 9.63275 3.92958
2 6.20848 4.7512 5.90521
2 10.1752 7.22809 3.06812
2 1.85966 7.21884 1.82257
2 6.06936 6.81649 9.95473
2 10.8321 5.48396 1.86541
2 2.4066 9.88604 9.78865
2 8.99424 3.93784 11.2214
2 5.63685 10.4877 5.96177
2 1.13409 3.5416 5.71416
2 3.5922 3.0673 1.43258
2 7.29493 3.94182 3.41141
2 4.02034 5.55805 6.62227
2 5.74437 7.90928 6.39936
2 7.22898 9.81919 11.2314
2 5.50206 5.45303 7.99186
2 1.2904 11.2692 11.2799
2 5.01096 7.12246 1.33563
2 11.0841 8.07032 1.45779
2 4.97329 4.1787 3.31239
2 9.19554 6.5654 12.3521
2 10.0661 1.36567 11.3198
2 10.1027 11.3208 6.99735
2 1.8323 12.0126 1.54546
2 4.76546 3.95042 9.19091
2 8.96556 1.9029 8.97057
2 0.882547 6.65646 7.7217
2 8.55727 1.49995 2.76611
2 1.81292 3.27728 11.8722
2 1.93528 9.73945 3.73733
2 5.03009 1.2733 7.91943
2 7.14597 6.99034 11.9677
2 3.11518 5.37655 1.65357
2 11.5858 11.1704 3.82515
2 2.84867 4.46943 6.33471
2 2.57735 7.51735 5.54641
2 5.52071 2.66176 5.78602
2 3.78332 5.15514 10.6031
2 7.38918 10.8575 7.24462
2 8.96955 4.41184 1.80488
2 9.41634 0.944807 5.3583
2 6.97624 2.95122 8.41178
2 3.9379 7.59723 3.43548
1 7.27947 8.04926 10.6462
1 3.58773 8.67657 9.63376
1 11.6565 5.86179 9.2967
1 2.9279 11.2516 11.1297
1 9.45105 8.51055 0.799332
1 8.93852 8.17561 3.85245
1 1.64406 3.27078 7.42668
1 7.88872 3.11798 2.32594
1 1.05695 2.89113 4.20724
1 6.06634 8.95297 5.0798
1 5.34038 6.32888 6.53738
1 5.80807 10.6868 10.4509
1 5.24455 5.39713 9.77144
1 6.15155 5.79662 0.579927
1 2.05109 7.29796 6.98121
1 11.5329 6.64757 2.49117
1 5.76037 11.131 7.30158
1 2.2696 4.73861 11.5981
1 3.66803 3.94193 2.78981
1 8.53816 11.7925 7.646
1 3.56295 7.13963 1.82814
1 1.31102 10.3789 8.24421
1 8.72904 11.2289 4.21494
1 6.01742 3.77163 4.80671
1 2.34112 2.19702 1.29146
1 8.85106 2.39406 10.7118
1 1.04752 10.8096 2.30701
1 9.71627 4.965 12.4244
1 10.8143 11.3433 11.1155
1 3.03314 8.72305 4.45392
1 5.09794 2.9808 7.59931
1 11.1348 11.5012 5.89205
96
 Atoms. Timestep: 24000
2 11.695 8.66024 9.5534
2 4.91925 9.55281 9.16242
2 8.72669 9.22349 4.5908