LAMMPS (2 Aug 2023 - Update 3)
units metal
boundary p p p
atom_style full
pair_style tersoff
neighbor 2.0 bin
neigh_modify delay 1




read_data SiO.data
Reading data file ...
  orthogonal box = (0 0 0) to (12.589463 12.589463 13.222096)
  1 by 1 by 1 MPI processor grid
WARNING: Atom style in data file atom-ID molecule-ID atom-type q x y z differs from currently defined atom style full (../read_data.cpp:621)
  reading atoms ...
  96 atoms
Finding 1-2 1-3 1-4 neighbors ...
  special bond factors lj:    0        0        0       
  special bond factors coul:  0        0        0       
     0 = max # of 1-2 neighbors
     0 = max # of 1-3 neighbors
     0 = max # of 1-4 neighbors
     1 = max # of special neighbors
  special bonds CPU = 0.000 seconds
  read_data CPU = 0.002 seconds
replicate 1 1 1
Replication is creating a 1x1x1 = 1 times larger system...
  orthogonal box = (0 0 0) to (12.589463 12.589463 13.222096)
  1 by 1 by 1 MPI processor grid
  96 atoms
Finding 1-2 1-3 1-4 neighbors ...
  special bond factors lj:    0        0        0       
  special bond factors coul:  0        0        0       
     0 = max # of 1-2 neighbors
     0 = max # of 1-3 neighbors
     0 = max # of 1-4 neighbors
     1 = max # of special neighbors
  special bonds CPU = 0.000 seconds
  replicate CPU = 0.001 seconds

pair_coeff * *  /root/Desktop/host/job1/SiO.tersoff Si O
Reading tersoff potential file /root/Desktop/host/job1/SiO.tersoff with DATE: 2010-08-16



group Si type 1
32 atoms in group Si
group O type 2
64 atoms in group O
#create_bonds many SiO SiO 1 0.5 10

dump dmp all xyz 2000 dump.lammpstrj



variable apot equal pe
# first number: number of steps to get current temp
# second number: calculate average n number of temp read above.
# third number: temp record (this must be larger than the one above )

variable atemp equal temp
fix temp_info all ave/time 10 200 2000 v_atemp file temperature.dat

#The cutoff used for pairwise computation (any pair style) and the
#associated neighbor list is the maximum cutoff that any compute
#can use. Atoms don't know any info about their neighbors
#further away than that.

# compute coord number
compute coor12 Si coord/atom cutoff 2.5 group O
compute coor11 Si coord/atom cutoff 2.5 group Si
compute coor22 O coord/atom cutoff 2.0 group O

compute sumcoor12 all reduce ave c_coor12
compute sumcoor11 all reduce ave c_coor11
compute sumcoor22 all reduce ave c_coor22


fix 12coord all ave/time  10 200 2000 c_sumcoor12 file Si-O_coord_number.dat
fix 11coord all ave/time  10 200 2000  c_sumcoor11 file Si-Si_coord_number.dat
fix 22coord all ave/time  10 200 2000  c_sumcoor22 file O-O_coord_number.dat




# unit cell information
variable avol equal vol
variable alx equal lx
variable aly equal ly
variable alz equal lz
fix cell_info all ave/time 10 200 2000 v_avol v_alx v_aly v_alz file cell_volume.dat


fix potential_info all ave/time 10 200 2000 v_apot file potential-energy.dat
thermo 1000



velocity all create 6000 555212 mom yes rot no dist gaussian
fix npt1 all npt temp 6000 5000 0.1 iso 0 0  1
timestep 0.001
#run 500
run 80000
Neighbor list info ...
  update: every = 1 steps, delay = 1 steps, check = yes
  max neighbors/atom: 2000, page size: 100000
  master list distance cutoff = 4.8
  ghost atom cutoff = 4.8
  binsize = 2.4, bins = 6 6 6
  4 neighbor lists, perpetual/occasional/extra = 1 3 0
  (1) pair tersoff, perpetual
      attributes: full, newton on
      pair build: full/bin
      stencil: full/bin/3d
      bin: standard
  (2) compute coord/atom, occasional, copy from (1)
      attributes: full, newton on
      pair build: copy
      stencil: none
      bin: none
  (3) compute coord/atom, occasional, copy from (1)
      attributes: full, newton on
      pair build: copy
      stencil: none
      bin: none
  (4) compute coord/atom, occasional, copy from (1)
      attributes: full, newton on
      pair build: copy
      stencil: none
      bin: none
Per MPI rank memory allocation (min/avg/max) = 6.021 | 6.021 | 6.021 Mbytes
   Step          Temp          E_pair         E_mol          TotEng         Press          Volume    
         0   6000          -638.06385      0             -564.38556      73800.118      2095.6304    
      1000   6212.4606     -558.49411      0             -482.20687      19008.219      2177.8043    
      2000   5406.2554     -545.16316      0             -478.77589     -26851.045      2336.8971    
      3000   5479.0703     -548.97014      0             -481.68872     -4307.2991      2341.2219    
      4000   4719.6681     -539.39813      0             -481.44196      13273.281      2197.5885    
      5000   6047.63       -537.49082      0             -463.22765      49857.972      2130.8602    
      6000   5477.033      -530.9632       0             -463.7068       11481.389      1938.633     
      7000   5610.7652     -524.28078      0             -455.38219     -9729.1115      1875.0456    
      8000   6690.0294     -511.57226      0             -429.42062      1981.0934      1739.3629    
      9000   5925.6273     -531.20986      0             -458.44485     -51763.913      1772.0641    
     10000   6396.9516     -522.18805      0             -443.63532     -24154.527      1801.3537    
     11000   6377.0973     -529.89968      0             -451.59075      19300.519      1545.6081    
     12000   5857.0244     -539.32051      0             -467.39793      25834.125      1541.3511    
     13000   5480.6862     -539.25814      0             -471.95688     -27490.437      1340.1495    
     14000   5492.1024     -547.46168      0             -480.02023      43212.634      1479.4007    
     15000   5266.4029     -550.97472      0             -486.3048       9989.0954      1650.9823    
     16000   5941.0433     -548.72026      0             -475.76595     -25237.504      1601.5249    
     17000   6072.0552     -551.25346      0             -476.69036     -10658.823      1554.0695    
     18000   5902.9397     -548.13931      0             -475.6529      -23900.057      1591.7062    
     19000   5882.8219     -529.46776      0             -457.22839      29352.69       1508.5665    
     20000   5768.2025     -535.34722      0             -464.51535      823.32265      1550.145     
     21000   4654.9096     -539.82718      0             -482.66622      5583.7684      1571.561     
     22000   5348.7543     -526.30934      0             -460.62817      26419.34       1503.9925    
     23000   5726.079      -531.94924      0             -461.63462      15394.428      1523.6386    
     24000   5425.7805     -536.49479      0             -469.86775     -2085.8355      1511.9606    
     25000   5618.7822     -532.2289       0             -463.23186      82621.585      1424.9597    
     26000   6044.8441     -550.33329      0             -476.10433     -16153.186      1439.5966    
     27000   5245.3336     -538.75929      0             -474.34809     -25835.71       1559.7486    
     28000   5690.2825     -526.79793      0             -456.92289      5324.1414      1562.7713    
     29000   6352.2184     -537.64108      0             -459.63766     -14883.533      1739.6633    
     30000   5428.8423     -544.00366      0             -477.33903      46295.16       1497.8658    
     31000   5162.227      -532.40932      0             -469.01865     -4231.7932      1536.1956    
     32000   5536.0949     -547.31353      0             -479.33187     -15118.816      1663.6168    
     33000   5277.6817     -544.63216      0             -479.82374      35413.602      1439.994     
     34000   5153.3386     -562.5731       0             -499.29158     -23209.314      1536.3974    
     35000   5089.494      -547.03064      0             -484.53311     -41605.536      1702.5663    
     36000   4657.0937     -538.26547      0             -481.07769     -20668.821      1633.9701    
     37000   5587.0224     -548.71677      0             -480.10973      22383.197      1628.051     
     38000   5209.5066     -546.45104      0             -482.47979      23697.914      1566.131     
     39000   5385.2406     -539.13415      0             -473.00494      30099.335      1479.5707    
     40000   5998.9518     -542.55886      0             -468.89345     -6440.4608      1551.3624    
     41000   4669.1262     -539.51617      0             -482.18063     -53036.654      1563.0622    
     42000   6284.7242     -541.56355      0             -464.38893      74231.737      1403.5703    
     43000   5979.0405     -552.53124      0             -479.11034      5550.0496      1422.0193    
     44000   4941.8129     -537.41021      0             -476.72616      20103.151      1442.0354    
     45000   5494.8673     -552.09928      0             -484.62388     -8287.8686      1439.6815    
     46000   6252.16       -533.80892      0             -457.03418      18523.089      1461.5187    
     47000   4462.2105     -544.84519      0             -490.05052      3580.4308      1564.9502    
     48000   5126.585      -533.67965      0             -470.72666     -24740.82       1703.913     
     49000   5706.693      -536.63255      0             -466.55599      84379.195      1368.2071    
     50000   5717.564      -544.30237      0             -474.09232     -23264.526      1590.1353    
     51000   5270.2736     -551.80253      0             -487.08508     -57598.761      1608.9809    
     52000   5963.1836     -551.21732      0             -477.99113      966.07153      1565.3562    
     53000   5753.602      -546.23157      0             -475.57898      7216.7921      1577.7457    
     54000   5037.5444     -545.78789      0             -483.92829      40588.681      1439.5304    
     55000   5127.9619     -547.85252      0             -484.88262     -31923.537      1577.6329    
     56000   5287.4848     -562.67686      0             -497.74806      61209.553      1520.0732    
     57000   5788.099      -549.90575      0             -478.82955     -31298.44       1633.2858    
     58000   5373.32       -557.1159       0             -491.13307     -25135.785      1545.6437    
     59000   5163.068      -558.48541      0             -495.08441     -21218.501      1477.762     
     60000   5451.2029     -547.77395      0             -480.83474     -50119.443      1360.9643    
     61000   5170.5119     -548.79062      0             -485.29821     -6390.1808      1377.9757    
     62000   5502.178      -557.32966      0             -489.76449     -14398.58       1317.0476    
     63000   4825.5998     -557.54856      0             -498.29158     -6447.9491      1216.4936    
     64000   5312.5901     -560.19212      0             -494.95503     -8195.373       1250.7785    
     65000   4957.477      -559.44149      0             -498.56509      49523.306      1381.6039    
     66000   5585.8814     -549.57709      0             -480.98406      30599.355      1372.8855    
     67000   5639.005      -549.63387      0             -480.3885      -33490.608      1419.8054    
     68000   5485.9246     -545.77541      0             -478.40982     -18449.021      1374.7698    
     69000   4439.2053     -551.0728       0             -496.56063     -30098.75       1452.8608    
     70000   4648.4119     -556.13682      0             -499.05565     -7703.7295      1355.8465    
     71000   5400.8484     -563.00563      0             -496.68475      3177.7065      1376.2457    
     72000   5228.1142     -561.48499      0             -497.28524     -34575.884      1461.9946    
     73000   5940.8225     -549.85607      0             -476.90447      36892.079      1509.0352    
     74000   5266.9571     -550.67458      0             -485.99785      32621.072      1427.4188    
     75000   6018.174      -540.97479      0             -467.07333     -9056.283       1544.8463    
     76000   4758.9128     -558.92199      0             -500.48391     -14225.794      1391.0152    
     77000   6036.7643     -554.33079      0             -480.20105      24328.264      1436.2816    
     78000   4780.1035     -558.78031      0             -500.08201      12093.744      1364.7888    
     79000   4862.848      -560.5377       0             -500.82332     -17291.245      1470.1377    
     80000   5759.3469     -553.73099      0             -483.00786     -2234.7281      1473.8134    
Loop time of 7.63355 on 1 procs for 80000 steps with 96 atoms

Performance: 905.476 ns/day, 0.027 hours/ns, 10480.048 timesteps/s, 1.006 Matom-step/s
96.6% CPU use with 1 MPI tasks x no OpenMP threads

MPI task timing breakdown:
Section |  min time  |  avg time  |  max time  |%varavg| %total
---------------------------------------------------------------
Pair    | 6.3847     | 6.3847     | 6.3847     |   0.0 | 83.64
Bond    | 0.0029592  | 0.0029592  | 0.0029592  |   0.0 |  0.04
Neigh   | 0.49315    | 0.49315    | 0.49315    |   0.0 |  6.46
Comm    | 0.22241    | 0.22241    | 0.22241    |   0.0 |  2.91
Output  | 0.012086   | 0.012086   | 0.012086   |   0.0 |  0.16
Modify  | 0.47663    | 0.47663    | 0.47663    |   0.0 |  6.24
Other   |            | 0.0416     |            |       |  0.54

Nlocal:             96 ave          96 max          96 min
Histogram: 1 0 0 0 0 0 0 0 0 0
Nghost:            504 ave         504 max         504 min
Histogram: 1 0 0 0 0 0 0 0 0 0
Neighs:              0 ave           0 max           0 min
Histogram: 1 0 0 0 0 0 0 0 0 0
FullNghs:         2822 ave        2822 max        2822 min
Histogram: 1 0 0 0 0 0 0 0 0 0

Total # of neighbors = 2822
Ave neighs/atom = 29.395833
Ave special neighs/atom = 0
Neighbor list builds = 3772
Dangerous builds = 0

fix npt1 all npt temp 5000 4000 0.1 iso 0 0 1
run 80000
Per MPI rank memory allocation (min/avg/max) = 8.549 | 8.549 | 8.549 Mbytes
   Step          Temp          E_pair         E_mol          TotEng         Press          Volume    
     80000   5759.3469     -553.73099      0             -483.00786     -2234.7281      1473.8134    
     81000   4859.8417     -557.94386      0             -498.2664      -31665.661      1408.6095    
     82000   4486.8967     -564.77863      0             -509.68083      31883.44       1379.9663    
     83000   4982.96       -566.46246      0             -505.27314     -28336.696      1405.4756    
     84000   5402.1346     -550.43436      0             -484.09769     -13136.225      1433.5878    
     85000   5180.8449     -556.10386      0             -492.48456     -24675.686      1376.317     
     86000   5010.3719     -563.10153      0             -501.5756      -43109.569      1452.4467    
     87000   5404.2753     -561.73018      0             -495.36723     -20754.772      1531.513     
     88000   5097.5617     -561.68322      0             -499.08662      40054.8        1445.6725    
     89000   4475.8596     -556.22563      0             -501.26336     -20559.881      1423.5131    
     90000   4758.3439     -566.78118      0             -508.35008      15072.831      1454.209     
     91000   4692.1031     -558.56839      0             -500.95071      22282.013      1500.9397    
     92000   5276.1219     -568.69248      0             -503.90321     -42057.427      1553.8434    
     93000   5203.7656     -551.15         0             -487.24925     -29181.119      1676.6901    
     94000   4701.9243     -558.61822      0             -500.87994     -62042.993      1473.5212    
     95000   5634.8323     -548.58153      0             -479.38741     -1165.0872      1549.5267    
     96000   4183.5095     -552.1963       0             -500.824        30091.592      1469.191     
     97000   4167.7642     -562.58151      0             -511.40256      16084.852      1407.1665    
     98000   5109.8331     -554.69873      0             -491.95145      57098.502      1391.8932    
     99000   4852.3374     -564.7928       0             -505.20749      36932.563      1481.9306    
    100000   4027.3451     -560.69992      0             -511.24527      63282.161      1431.1313    
    101000   4609.9325     -558.92164      0             -502.31299     -29924.486      1478.3381    
    102000   4694.207      -568.28076      0             -510.63724     -17495.361      1448.0419    
    103000   5133.5777     -560.44959      0             -497.41073     -6713.477       1469.4113    
    104000   4771.1389     -553.10701      0             -494.51879     -25044.184      1549.2825    
    105000   4582.754      -562.91315      0             -506.63824     -47293.292      1475.1395    
    106000   4640.7195     -561.40261      0             -504.41591      17274.053      1480.7045    
    107000   4869.3019     -563.84982      0             -504.05619     -9006.325       1492.2339    
    108000   4612.0611     -563.50195      0             -506.86716      46612.668      1464.9817    
    109000   4474.659      -560.55681      0             -505.60928      11049.335      1520.4268    
    110000   4224.026      -558.4893       0             -506.61947      22927.77       1483.3388    
    111000   4808.6687     -563.88416      0             -504.83508      19315.898      1471.3997    
    112000   4372.0056     -562.29125      0             -508.60427     -14926.47       1506.057     
    113000   4275.696      -561.38542      0             -508.8811      -14071.21       1523.0111    
    114000   4773.7223     -562.92001      0             -504.30006      10275.571      1478.4246    
    115000   4573.9693     -563.21301      0             -507.04598     -37307.301      1539.7887    
    116000   4417.1003     -554.50765      0             -500.26693     -19557.482      1367.4734    
    117000   4843.5929     -565.17247      0             -505.69454     -15657.144      1336.3345    
    118000   4278.0958     -576.7871       0             -524.25331      33069.544      1432.342     
    119000   5079.4072     -564.8554       0             -502.48174     -15294.058      1542.239     
    120000   4498.3757     -569.42449      0             -514.18573     -37604.054      1521.0055    
    121000   4888.7662     -571.97577      0             -511.94312     -39897.301      1501.3714    
    122000   4250.2682     -565.78508      0             -513.593       -3490.1569      1431.5807    
    123000   4728.3848     -565.24039      0             -507.17718      28461.223      1376.4002    
    124000   4677.8968     -564.08172      0             -506.63848      3326.3025      1447.4877    
    125000   3868.5295     -566.13415      0             -518.62971      14041.13       1397.5249    
    126000   3974.713      -563.01715      0             -514.20881     -15920.084      1427.0483    
    127000   3884.7589     -560.06879      0             -512.36506     -30269.029      1488.4528    
    128000   4225.2127     -560.30573      0             -508.42133     -38179.965      1492.0817    
    129000   4603.1142     -576.11127      0             -519.58635     -11552.931      1497.8452    
    130000   4482.0119     -564.05944      0             -509.02162      7015.6783      1501.034     
    131000   4306.6397     -565.01456      0             -512.13026     -7567.2384      1517.6028    
    132000   4208.2618     -564.72735      0             -513.0511      -40408.681      1521.757     
    133000   3358.4919     -569.92701      0             -528.68569      27555.062      1419.1738    
    134000   5112.6032     -560.55193      0             -497.77062     -10665.781      1409.2251    
    135000   4098.6582     -569.33357      0             -519.00322     -14857.733      1559.9551    
    136000   4167.2042     -572.11349      0             -520.94141     -44513.951      1580.9113    
    137000   4205.7993     -574.43418      0             -522.78817      2537.8884      1572.3008    
    138000   4534.2208     -570.96642      0             -515.28748      12638.429      1524.8453    
    139000   4234.3869     -581.08821      0             -529.09115     -29753.885      1559.8829    
    140000   4663.9387     -579.77353      0             -522.5017      -32031.367      1556.5796    
    141000   4990.9834     -579.75817      0             -518.47032      8070.2195      1545.1068    
    142000   4038.3429     -569.56076      0             -519.97106     -13998.091      1562.5349    
    143000   5498.7777     -571.35759      0             -503.83417      15686.773      1566.3851    
    144000   3575.6806     -564.02976      0             -520.12143     -26811.604      1579.3399    
    145000   4245.7718     -576.50025      0             -524.36339     -22296.166      1588.714     
    146000   3666.895      -578.24384      0             -533.21541     -21967.123      1550.0787    
    147000   4586.9644     -573.47709      0             -517.15048      9965.0954      1470.0776    
    148000   4571.9768     -568.75039      0             -512.60782      15285.769      1516.7591    
    149000   3851.5787     -568.44746      0             -521.15117      22661.691      1518.6591    
    150000   3936.3819     -568.00746      0             -519.66981     -39905.98       1534.5272    
    151000   3574.5432     -578.07476      0             -534.18039      18274.026      1501.794     
    152000   3682.4037     -565.54804      0             -520.32917     -29227.236      1502.1087    
    153000   3978.474      -570.82121      0             -521.96668      26.640487      1439.1107    
    154000   4614.7644     -575.20225      0             -518.53426      11322.189      1412.2957    
    155000   4383.8305     -556.94377      0             -503.11159     -13822.732      1460.9249    
    156000   3468.0595     -570.48063      0             -527.89385      8740.0341      1525.5091    
    157000   4526.5461     -572.04906      0             -516.46437     -19065.152      1549.7182    
    158000   4183.0107     -571.50692      0             -520.14075     -31941.78       1679.3083    
    159000   3591.2805     -570.64926      0             -526.54936      37115.295      1493.6473    
    160000   3787.8318     -567.86936      0             -521.35587      24583.508      1548.8741    
Loop time of 7.18624 on 1 procs for 80000 steps with 96 atoms

Performance: 961.838 ns/day, 0.025 hours/ns, 11132.381 timesteps/s, 1.069 Matom-step/s
98.3% CPU use with 1 MPI tasks x no OpenMP threads

MPI task timing breakdown:
Section |  min time  |  avg time  |  max time  |%varavg| %total
---------------------------------------------------------------
Pair    | 6.0402     | 6.0402     | 6.0402     |   0.0 | 84.05
Bond    | 0.0026311  | 0.0026311  | 0.0026311  |   0.0 |  0.04
Neigh   | 0.43366    | 0.43366    | 0.43366    |   0.0 |  6.03
Comm    | 0.21448    | 0.21448    | 0.21448    |   0.0 |  2.98
Output  | 0.0097925  | 0.0097925  | 0.0097925  |   0.0 |  0.14
Modify  | 0.44759    | 0.44759    | 0.44759    |   0.0 |  6.23
Other   |            | 0.03792    |            |       |  0.53

Nlocal:             96 ave          96 max          96 min
Histogram: 1 0 0 0 0 0 0 0 0 0
Nghost:            522 ave         522 max         522 min
Histogram: 1 0 0 0 0 0 0 0 0 0
Neighs:              0 ave           0 max           0 min
Histogram: 1 0 0 0 0 0 0 0 0 0
FullNghs:         2664 ave        2664 max        2664 min
Histogram: 1 0 0 0 0 0 0 0 0 0

Total # of neighbors = 2664
Ave neighs/atom = 27.75
Ave special neighs/atom = 0
Neighbor list builds = 3327
Dangerous builds = 0

fix npt1 all npt temp 4000 4000 0.1 iso 0 0 1
run 80000
Per MPI rank memory allocation (min/avg/max) = 8.549 | 8.549 | 8.549 Mbytes
   Step          Temp          E_pair         E_mol          TotEng         Press          Volume    
    160000   3787.8318     -567.86936      0             -521.35587      24583.508      1548.8741    
    161000   4164.346      -569.94421      0             -518.80723     -6159.8812      1609.7818    
    162000   4230.7742     -560.9919       0             -509.0392       37194.2        1540.8117    
    163000   4435.9356     -568.30028      0             -513.82826     -11246.543      1521.213     
    164000   4043.9257     -570.16247      0             -520.50422      44675.305      1524.0963    
    165000   4147.8307     -570.2036       0             -519.26942     -6433.2163      1569.5727    
    166000   3844.3524     -577.02566      0             -529.81812     -27048.005      1576.8292    
    167000   4263.8349     -569.67946      0             -517.32079     -8346.5163      1636.8322    
    168000   3976.0034     -580.17973      0             -531.35555     -615.57543      1605.5384    
    169000   4430.7322     -575.83572      0             -521.4276       22702.86       1594.1697    
    170000   4003.396      -571.63408      0             -522.47352      39287.612      1565.7583    
    171000   4041.6016     -569.09165      0             -519.46194     -12399.083      1543.9557    
    172000   4061.1196     -573.50125      0             -523.63187     -6535.0388      1586.7807    
    173000   4541.799      -578.6465       0             -522.8745      -8817.182       1581.7212    
    174000   4172.7801     -573.2225       0             -521.98195     -7000.8167      1573.6932    
    175000   4026.9235     -580.28485      0             -530.83538     -29327.496      1601.1748    
    176000   4619.7626     -565.04951      0             -508.32015     -16556.199      1543.8679    
    177000   3957.6206     -578.02165      0             -529.4232       19819.024      1489.9206    
    178000   4426.764      -577.23497      0             -522.87558     -13312.415      1494.5032    
    179000   4213.2151     -577.91376      0             -526.17668      44190.274      1581.6783    
    180000   4370.4548     -583.87326      0             -530.20533     -13445.591      1610.5765    
    181000   3965.0738     -574.55418      0             -525.86421      11438.839      1609.3468    
    182000   3742.034      -576.28112      0             -530.33001      7538.8302      1497.0265    
    183000   4052.6392     -570.68235      0             -520.9171       24638.122      1495.3526    
    184000   3692.1546     -578.71069      0             -533.37209     -46210.352      1635.9171    
    185000   4263.7452     -578.12936      0             -525.77179     -26351.811      1615.4463    
    186000   3645.3415     -576.20275      0             -531.43899     -54860.965      1648.6395    
    187000   3545.5462     -577.23441      0             -533.69611     -45221.029      1654.2083    
    188000   4178.4454     -571.39097      0             -520.08086     -29807.23       1611.7681    
    189000   3452.4333     -576.83194      0             -534.43705     -25028.422      1627.6299    
    190000   3998.5088     -571.66457      0             -522.56403      21273.448      1593.6727    
    191000   4007.5638     -576.08859      0             -526.87685      1765.4645      1583.468     
    192000   4122.9672     -576.56098      0             -525.93212      65559.575      1486.92      
    193000   3722.0503     -581.64281      0             -535.9371       20357.655      1548.2729    
    194000   4246.5818     -569.97377      0             -517.82696      36834.625      1504.6813    
    195000   3755.3407     -573.67465      0             -527.56014     -14218.059      1574.3236    
    196000   3900.1162     -574.31786      0             -526.42555     -186.82097      1557.2356    
    197000   4382.0811     -580.81199      0             -527.00129     -1774.2563      1570.8884    
    198000   4273.8006     -577.32461      0             -524.84356     -8727.1553      1561.7008    
    199000   3725.8532     -580.66687      0             -534.91446     -23705.279      1572.8918    
    200000   4306.8893     -580.13279      0             -527.24542      5260.2551      1522.6467    
    201000   3473.7307     -582.08089      0             -539.42448      6461.0027      1501.6019    
    202000   4213.9963     -576.07382      0             -524.32715      22791.184      1506.8617    
    203000   4092.4304     -579.69884      0             -529.44497      46572.371      1539.2628    
    204000   3714.9552     -580.7949       0             -535.17632      1155.9213      1530.3529    
    205000   3956.959      -573.3278       0             -524.73748     -16959.807      1557.4195    
    206000   4033.5892     -575.80691      0             -526.27559     -7035.1751      1537.4174    
    207000   4242.3875     -582.47589      0             -530.38059     -4844.5578      1554.4639    
    208000   3898.2348     -578.95967      0             -531.09046      27226.388      1563.2165    
    209000   3726.6497     -569.68351      0             -523.92132      1136.7118      1523.343     
    210000   3759.8239     -582.80885      0             -536.63929     -25550.064      1568.2322    
    211000   4329.1808     -577.62392      0             -524.46282     -33008.029      1639.5866    
    212000   3966.981      -574.03796      0             -525.32457      10081.589      1540.4569    
    213000   3842.7732     -579.18232      0             -531.99417      7471.4422      1495.8234    
    214000   3921.061      -578.43088      0             -530.28138      46933.874      1520.3177    
    215000   3936.4462     -575.84358      0             -527.50515     -6.8154815      1567.2146    
    216000   4132.7162     -579.86517      0             -529.1166       27547.237      1543.1781    
    217000   4268.8125     -574.39186      0             -521.97206     -26795.434      1502.8984    
    218000   3777.9194     -579.54946      0             -533.15769     -20180.358      1508.109     
    219000   3598.4845     -574.35922      0             -530.17086     -7923.2005      1473.6239    
    220000   4586.3527     -569.60953      0             -513.29043      11912.174      1519.2075    
    221000   3998.9882     -578.23942      0             -529.13299      25272.058      1503.5861    
    222000   3508.1603     -575.58873      0             -532.50953      41914.197      1531.3456    
    223000   3999.1591     -577.17416      0             -528.06564     -4470.7742      1531.0056    
    224000   3824.7438     -573.64315      0             -526.67639     -6610.7432      1570.4111    
    225000   5071.8428     -574.24754      0             -511.96676      14853.013      1509.1725    
    226000   3641.0871     -573.44557      0             -528.73407      10036.383      1499.7417    
    227000   4008.2149     -575.5243       0             -526.30457     -25623.01       1572.1095    
    228000   4214.4427     -571.62769      0             -519.87554     -13572.804      1552.0041    
    229000   3818.608      -584.26889      0             -537.37747     -7868.0216      1551.6887    
    230000   3680.6971     -574.39842      0             -529.20051     -967.30402      1604.9728    
    231000   4034.2217     -572.16936      0             -522.63027      5945.8579      1604.3261    
    232000   4427.5399     -586.45102      0             -532.08209     -5089.3497      1598.5144    
    233000   3930.6271     -573.94157      0             -525.67459     -12533.629      1660.2702    
    234000   3886.3913     -578.11677      0             -530.393       -23839.42       1588.9198    
    235000   3732.4365     -579.32701      0             -533.49376     -13798.964      1594.5345    
    236000   4098.4321     -577.87075      0             -527.54318      867.5967       1559.6058    
    237000   3848.3553     -583.57344      0             -536.31674      33048.323      1481.991     
    238000   4033.9822     -578.58616      0             -529.05002     -26355.521      1538.4762    
    239000   4108.3184     -576.92018      0             -526.4712       2460.0168      1550.5827    
    240000   4205.8162     -584.67986      0             -533.03364      6049.6083      1510.6429    
Loop time of 6.44495 on 1 procs for 80000 steps with 96 atoms

Performance: 1072.468 ns/day, 0.022 hours/ns, 12412.827 timesteps/s, 1.192 Matom-step/s
99.5% CPU use with 1 MPI tasks x no OpenMP threads

MPI task timing breakdown:
Section |  min time  |  avg time  |  max time  |%varavg| %total
---------------------------------------------------------------
Pair    | 5.3998     | 5.3998     | 5.3998     |   0.0 | 83.78
Bond    | 0.0024884  | 0.0024884  | 0.0024884  |   0.0 |  0.04
Neigh   | 0.3773     | 0.3773     | 0.3773     |   0.0 |  5.85
Comm    | 0.20118    | 0.20118    | 0.20118    |   0.0 |  3.12
Output  | 0.0086188  | 0.0086188  | 0.0086188  |   0.0 |  0.13
Modify  | 0.42208    | 0.42208    | 0.42208    |   0.0 |  6.55
Other   |            | 0.03351    |            |       |  0.52

Nlocal:             96 ave          96 max          96 min
Histogram: 1 0 0 0 0 0 0 0 0 0
Nghost:            491 ave         491 max         491 min
Histogram: 1 0 0 0 0 0 0 0 0 0
Neighs:              0 ave           0 max           0 min
Histogram: 1 0 0 0 0 0 0 0 0 0
FullNghs:         2786 ave        2786 max        2786 min
Histogram: 1 0 0 0 0 0 0 0 0 0

Total # of neighbors = 2786
Ave neighs/atom = 29.020833
Ave special neighs/atom = 0
Neighbor list builds = 3088
Dangerous builds = 0

fix npt1 all npt temp 4000 3000 0.1 iso 0 0  1
run 80000
Per MPI rank memory allocation (min/avg/max) = 8.549 | 8.549 | 8.549 Mbytes
   Step          Temp          E_pair         E_mol          TotEng         Press          Volume    
    240000   4205.8162     -584.67986      0             -533.03364      6049.6083      1510.6429    
    241000   3695.0252     -579.43761      0             -534.06376     -13713.304      1499.8027    
    242000   3898.9214     -572.87166      0             -524.99402      23313.204      1453.5999    
    243000   4050.272      -576.80729      0             -527.07111     -2183.3647      1491.134     
    244000   4349.1329     -570.67717      0             -517.27107      27441.5        1626.1211    
    245000   3781.8074     -576.37569      0             -529.93618      20749.212      1422.8225    
    246000   3492.3709     -575.56398      0             -532.67867     -9987.3849      1512.8715    
    247000   4259.7914     -573.92507      0             -521.61606      45334.362      1443.3279    
    248000   4091.3975     -577.04381      0             -526.80262      5514.408       1458.9832    
    249000   3835.657      -578.36229      0             -531.26152      13621.418      1434.3234    
    250000   3751.5082     -574.64312      0             -528.57567     -3734.5752      1464.5264    
    251000   4324.2175     -574.87353      0             -521.77338      5384.7535      1475.3722    
    252000   4007.2356     -577.29955      0             -528.09184     -19524.737      1477.8369    
    253000   4020.2299     -578.02631      0             -528.65904     -7849.4762      1485.7701    
    254000   4443.0239     -578.53515      0             -523.97609      24173.741      1442.871     
    255000   3613.6122     -576.33363      0             -531.95951      8872.6951      1482.182     
    256000   3609.4313     -578.84814      0             -534.52536     -45535.019      1509.191     
    257000   4025.821      -573.07785      0             -523.64192      23028.593      1472.0883    
    258000   3866.9963     -575.93401      0             -528.44841     -32735.948      1580.2296    
    259000   2961.1341     -569.74681      0             -533.38493     -30089.155      1575.5775    
    260000   3846.3008     -573.69138      0             -526.45991     -477.19715      1442.4363    
    261000   3619.929      -575.78277      0             -531.33108     -8143.1769      1402.1859    
    262000   3526.5431     -572.96804      0             -529.6631      -14890.72       1407.2159    
    263000   3127.6004     -578.31832      0             -539.91228      1746.2335      1351.8455    
    264000   4034.0149     -575.88522      0             -526.34867     -3602.0299      1363.8988    
    265000   3884.8221     -570.06983      0             -522.36533     -6610.1878      1412.1937    
    266000   3952.067      -576.62274      0             -528.09249      980.83447      1544.8348    
    267000   3705.3699     -573.44099      0             -527.94011      3715.1546      1510.6875    
    268000   3894.0239     -565.969        0             -518.1515       26533.44       1460.6002    
    269000   3987.6259     -580.40283      0             -531.43592     -32455.136      1496.6382    
    270000   3451.3595     -577.44652      0             -535.06482     -18124.392      1449.4267    
    271000   3703.5278     -574.94825      0             -529.46999      10219.136      1455.6446    
    272000   3836.0223     -587.93232      0             -540.82706      16209.732      1388.614     
    273000   4191.646      -581.0724       0             -529.60019      28219.235      1354.0965    
    274000   3420.7804     -581.41586      0             -539.40965     -17398.77       1446.0277    
    275000   3374.5934     -571.45645      0             -530.01741      5875.0378      1450.8473    
    276000   3834.2279     -581.10479      0             -534.02156      38598.456      1452.2029    
    277000   3904.4344     -583.86001      0             -535.91468     -21455.068      1499.9312    
    278000   3366.9041     -581.0178       0             -539.67318      24716.788      1488.8804    
    279000   3792.4883     -578.97874      0             -532.40807     -18442.399      1447.1791    
    280000   3261.2473     -579.45391      0             -539.40672     -8629.4139      1471.8793    
    281000   3846.6378     -574.83084      0             -527.59523      665.47306      1499.6322    
    282000   3054.0617     -576.07836      0             -538.57536     -17526.007      1489.8017    
    283000   3816.9997     -578.36979      0             -531.49813      8556.7541      1462.8585    
    284000   3238.932      -577.25319      0             -537.48003     -7631.2595      1455.1998    
    285000   3171.1933     -583.03472      0             -544.09338     -30314.532      1543.4582    
    286000   2961.5124     -575.83049      0             -539.46397     -25427.056      1496.9578    
    287000   2993.8274     -586.03539      0             -549.27204      16781.672      1487.31      
    288000   3536.617      -584.51577      0             -541.08713     -25868.142      1528.4734    
    289000   3693.9122     -575.41649      0             -530.0563      -11096.331      1509.2121    
    290000   3426.5612     -583.90827      0             -541.83108     -24107.717      1474.3046    
    291000   3563.9022     -575.1366       0             -531.3729      -1075.5284      1425.2868    
    292000   3240.9445     -579.41282      0             -539.61495     -33471.418      1460.2893    
    293000   3383.0567     -584.89867      0             -543.3557       11949.876      1521.6145    
    294000   3132.1221     -581.80462      0             -543.34306      30904.246      1525.0596    
    295000   3788.2917     -578.73775      0             -532.21861     -40488.924      1549.0097    
    296000   2989.7878     -578.82368      0             -542.10994     -7012.7332      1510.3624    
    297000   3192.3188     -583.30733      0             -544.10657      18097.733      1450.9481    
    298000   3382.1696     -581.90022      0             -540.36815     -2831.1068      1433.0123    
    299000   3173.9469     -589.71943      0             -550.74427      22108.141      1397.6209    
    300000   3205.6645     -584.11563      0             -544.75099      1060.0797      1387.7562    
    301000   3340.4612     -583.69068      0             -542.67077     -56411.881      1403.3218    
    302000   2716.2938     -580.9227       0             -547.56739     -31844.721      1440.575     
    303000   3415.9305     -584.10015      0             -542.1535      -40458.815      1473.0006    
    304000   3442.3322     -582.1629       0             -539.89204      1581.7766      1452.0389    
    305000   3308.1777     -588.23568      0             -547.6122      -11450.561      1453.6227    
    306000   3070.217      -580.93964      0             -543.23826      28341.698      1431.1212    
    307000   2780.5711     -587.61921      0             -553.47459     -31971.159      1454.8264    
    308000   3378.1294     -581.15303      0             -539.67057     -10466.909      1480.2516    
    309000   3188.4186     -586.86344      0             -547.71057     -23663.359      1425.5924    
    310000   2911.276      -588.46571      0             -552.71608     -14572.639      1440.6832    
    311000   3308.8447     -583.99326      0             -543.36159     -819.94552      1402.2134    
    312000   2886.5235     -586.47828      0             -551.03259      19039.73       1369.0574    
    313000   2924.4109     -593.58839      0             -557.67746      1170.7811      1374.0946    
    314000   2919.1293     -584.49606      0             -548.64998      46927.772      1349.9448    
    315000   3111.0498     -587.02844      0             -548.82564     -2848.027       1389.1162    
    316000   3080.4747     -591.46376      0             -553.63641     -1742.0319      1393.1632    
    317000   2996.1254     -588.99894      0             -552.20738      2889.4047      1413.6227    
    318000   2717.4332     -586.62408      0             -553.25478     -8127.5124      1412.8287    
    319000   3394.1984     -584.52825      0             -542.84846      47517.029      1351.5498    
    320000   2959.3864     -590.40412      0             -554.0637      -26359.258      1383.8372    
Loop time of 7.08786 on 1 procs for 80000 steps with 96 atoms

Performance: 975.189 ns/day, 0.025 hours/ns, 11286.908 timesteps/s, 1.084 Matom-step/s
97.6% CPU use with 1 MPI tasks x no OpenMP threads

MPI task timing breakdown:
Section |  min time  |  avg time  |  max time  |%varavg| %total
---------------------------------------------------------------
Pair    | 6.0024     | 6.0024     | 6.0024     |   0.0 | 84.69
Bond    | 0.0027698  | 0.0027698  | 0.0027698  |   0.0 |  0.04
Neigh   | 0.36373    | 0.36373    | 0.36373    |   0.0 |  5.13
Comm    | 0.21403    | 0.21403    | 0.21403    |   0.0 |  3.02
Output  | 0.010179   | 0.010179   | 0.010179   |   0.0 |  0.14
Modify  | 0.45713    | 0.45713    | 0.45713    |   0.0 |  6.45
Other   |            | 0.03757    |            |       |  0.53

Nlocal:             96 ave          96 max          96 min
Histogram: 1 0 0 0 0 0 0 0 0 0
Nghost:            524 ave         524 max         524 min
Histogram: 1 0 0 0 0 0 0 0 0 0
Neighs:              0 ave           0 max           0 min
Histogram: 1 0 0 0 0 0 0 0 0 0
FullNghs:         3020 ave        3020 max        3020 min
Histogram: 1 0 0 0 0 0 0 0 0 0

Total # of neighbors = 3020
Ave neighs/atom = 31.458333
Ave special neighs/atom = 0
Neighbor list builds = 2796
Dangerous builds = 0

fix npt1 all npt temp 3000 3000 0.1 iso 0 0 1
run 80000
Per MPI rank memory allocation (min/avg/max) = 8.549 | 8.549 | 8.549 Mbytes
   Step          Temp          E_pair         E_mol          TotEng         Press          Volume    
    320000   2959.3864     -590.40412      0             -554.0637      -26359.258      1383.8372    
    321000   3441.3476     -585.80408      0             -543.54532     -18758.442      1352.2866    
    322000   2834.1454     -582.08825      0             -547.28576      10139.847      1385.9668    
    323000   2752.4379     -591.17092      0             -557.37177     -10978.178      1407.771     
    324000   2957.4798     -588.96847      0             -552.65146      38858.264      1379.6687    
    325000   3381.8893     -588.1286       0             -546.59997     -23851.72       1422.0293    
    326000   3075.9839     -590.72364      0             -552.95144     -14298.19       1460.0152    
    327000   2775.2201     -586.42243      0             -552.34353     -6300.3807      1458.1926    
    328000   2725.5482     -593.34724      0             -559.87829      7600.3159      1433.0054    
    329000   2725.0463     -589.30122      0             -555.83843      8716.1975      1408.9241    
    330000   2853.8379     -588.31402      0             -553.26971      9574.6237      1436.3348    
    331000   2922.322      -595.61428      0             -559.729       -11074.105      1442.156     
    332000   2540.329      -585.75149      0             -554.55697     -7784.7922      1443.8659    
    333000   2784.2844     -591.70471      0             -557.5145      -11172.791      1401.4603    
    334000   2629.4842     -593.03629      0             -560.74698      63023.04       1372.577     
    335000   3051.9122     -593.09526      0             -555.61865     -15640.187      1451.1102    
    336000   3391.1737     -586.34161      0             -544.69896     -50120.789      1494.8455    
    337000   3293.4924     -594.2658       0             -553.82265      25829.253      1449.5342    
    338000   2893.688      -592.12503      0             -556.59137      26531.872      1406.7609    
    339000   3181.2564     -583.39289      0             -544.32797     -16865.255      1479.3025    
    340000   3164.1118     -587.83734      0             -548.98296      13003.631      1489.9427    
    341000   2591.5602     -590.26153      0             -558.43792     -19261.97       1516.264     
    342000   2929.2313     -591.98973      0             -556.01961      38833.796      1392.8675    
    343000   3220.1249     -588.85538      0             -549.31317     -11844.728      1377.5754    
    344000   2847.58       -589.13769      0             -554.17022     -22889.648      1462.6945    
    345000   3066.9881     -589.81721      0             -552.15547     -55533.08       1529.8482    
    346000   3578.9658     -592.73475      0             -548.78608     -7313.0983      1493.534     
    347000   2418.208      -583.74063      0             -554.04573     -636.84446      1490.3882    
    348000   3239.4951     -591.70317      0             -551.9231       27107.048      1445.7059    
    349000   3191.133      -584.31406      0             -545.12786      23882.611      1419.2599    
    350000   2969.1438     -589.31991      0             -552.85967      24696.556      1429.3526    
    351000   2720.3248     -581.77415      0             -548.36934      22554.075      1470.5114    
    352000   3105.1887     -588.85888      0             -550.72805     -8668.3468      1480.9654    
    353000   2726.654      -588.89145      0             -555.40892     -9912.8301      1432.2354    
    354000   2850.1214     -588.91976      0             -553.92108      12822.674      1401.6248    
    355000   3038.5028     -593.90029      0             -556.58835     -27843.37       1486.9175    
    356000   3060.3713     -586.67031      0             -549.08983     -5286.2768      1477.1972    
    357000   3063.7468     -590.70831      0             -553.08638      24065.288      1443.113     
    358000   3240.5571     -592.36306      0             -552.56994      10658.11       1425.2998    
    359000   3489.5702     -591.41811      0             -548.56718     -21957.085      1477.5018    
    360000   2776.2791     -590.1986       0             -556.10668      10504.917      1484.1474    
    361000   3352.8472     -589.42106      0             -548.24906     -24195.196      1494.4439    
    362000   2994.0078     -585.67472      0             -548.90916     -1905.9696      1443.1215    
    363000   2971.3805     -587.61118      0             -551.12348      6533.6418      1410.4417    
    364000   3122.2371     -595.15334      0             -556.81316      3671.7632      1460.5649    
    365000   2891.0702     -593.0184       0             -557.51689     -37465.654      1491.2914    
    366000   3227.8318     -591.49306      0             -551.85621      20.377976      1511.4383    
    367000   2777.4055     -593.46101      0             -559.35526     -14942.176      1457.5199    
    368000   3049.8239     -585.70819      0             -548.25722      28593.847      1426.0378    
    369000   3202.1547     -593.61591      0             -554.29436     -36107.378      1465.4669    
    370000   3310.9213     -585.35676      0             -544.6996       39598.229      1434.1904    
    371000   3102.6376     -592.17581      0             -554.0763       12251.164      1430.2867    
    372000   2600.2563     -589.84089      0             -557.91049     -9929.1656      1434.3333    
    373000   2778.3912     -588.20649      0             -554.08864     -36557.754      1450.9631    
    374000   3327.6355     -586.53553      0             -545.67312      22183.887      1455.536     
    375000   2949.437      -592.52965      0             -556.3114       453.52221      1413.1975    
    376000   3231.4189     -586.88936      0             -547.20846      25553.832      1409.9488    
    377000   2915.8076     -592.08024      0             -556.27496      7723.5221      1404.9632    
    378000   2948.4624     -593.60464      0             -557.39837      18710.183      1390.7738    
    379000   3423.6384     -587.90695      0             -545.86565     -17605.394      1437.4274    
    380000   3096.9159     -593.00507      0             -554.97583     -502.37046      1451.2318    
    381000   2458.8922     -590.03917      0             -559.84468     -2569.0578      1447.936     
    382000   2908.813      -588.67816      0             -552.95877     -13241.483      1479.0705    
    383000   2636.827      -584.13537      0             -551.75588      9630.9123      1437.6077    
    384000   2590.0531     -584.92861      0             -553.1235       16791.569      1456.963     
    385000   2801.2263     -591.52191      0             -557.12365     -6366.0196      1489.8092    
    386000   2913.754      -588.8467       0             -553.06663     -11463.855      1418.6139    
    387000   3106.366      -585.54084      0             -547.39555      17633.802      1385.3102    
    388000   2740.3702     -588.18781      0             -554.53685      2975.4924      1393.9588    
    389000   2954.6119     -591.40387      0             -555.12208     -18485.747      1401.1385    
    390000   3203.9711     -589.7692       0             -550.42535      7659.5253      1425.968     
    391000   3084.1519     -588.23634      0             -550.36384      23947.841      1422.5497    
    392000   2805.8886     -593.00034      0             -558.54483     -11048.931      1425.7478    
    393000   2610.3761     -583.95823      0             -551.90356     -5394.3541      1353.4228    
    394000   2932.2645     -591.38387      0             -555.37651      31704.907      1376.4611    
    395000   3041.5869     -585.01683      0             -547.66702     -1201.7508      1396.0469    
    396000   3095.8916     -592.13635      0             -554.11969      11656.112      1414.7434    
    397000   2861.3065     -589.91898      0             -554.78296     -7060.9769      1397.1334    
    398000   3172.2865     -586.4165       0             -547.46173      36751.448      1335.9337    
    399000   3163.9892     -591.43738      0             -552.5845      -4499.6486      1391.9286    
    400000   2977.7146     -594.66702      0             -558.10154     -25175.753      1407.362     
Loop time of 6.52735 on 1 procs for 80000 steps with 96 atoms

Performance: 1058.929 ns/day, 0.023 hours/ns, 12256.120 timesteps/s, 1.177 Matom-step/s
99.2% CPU use with 1 MPI tasks x no OpenMP threads

MPI task timing breakdown:
Section |  min time  |  avg time  |  max time  |%varavg| %total
---------------------------------------------------------------
Pair    | 5.5217     | 5.5217     | 5.5217     |   0.0 | 84.59
Bond    | 0.002499   | 0.002499   | 0.002499   |   0.0 |  0.04
Neigh   | 0.31812    | 0.31812    | 0.31812    |   0.0 |  4.87
Comm    | 0.20335    | 0.20335    | 0.20335    |   0.0 |  3.12
Output  | 0.0099269  | 0.0099269  | 0.0099269  |   0.0 |  0.15
Modify  | 0.43894    | 0.43894    | 0.43894    |   0.0 |  6.72
Other   |            | 0.03282    |            |       |  0.50

Nlocal:             96 ave          96 max          96 min
Histogram: 1 0 0 0 0 0 0 0 0 0
Nghost:            532 ave         532 max         532 min
Histogram: 1 0 0 0 0 0 0 0 0 0
Neighs:              0 ave           0 max           0 min
Histogram: 1 0 0 0 0 0 0 0 0 0
FullNghs:         2966 ave        2966 max        2966 min
Histogram: 1 0 0 0 0 0 0 0 0 0

Total # of neighbors = 2966
Ave neighs/atom = 30.895833
Ave special neighs/atom = 0
Neighbor list builds = 2541
Dangerous builds = 0

fix npt1 all npt temp 3000 2000 0.1 iso 0 0 1
run 80000
Per MPI rank memory allocation (min/avg/max) = 8.549 | 8.549 | 8.549 Mbytes
   Step          Temp          E_pair         E_mol          TotEng         Press          Volume    
    400000   2977.7146     -594.66702      0             -558.10154     -25175.753      1407.362     
    401000   3083.1966     -591.44211      0             -553.58134     -20490.385      1426.4026    
    402000   2645.4563     -592.11937      0             -559.63393     -22153.211      1409.0436    
    403000   2790.6148     -595.15507      0             -560.88712     -18098.098      1452.1456    
    404000   3164.7846     -589.50493      0             -550.64228     -1266.559       1447.8631    
    405000   2962.6569     -593.95296      0             -557.57238     -4566.1669      1463.2987    
    406000   3187.356      -589.58653      0             -550.44671     -21502.102      1485.9304    
    407000   2985.4632     -599.35683      0             -562.6962       2593.572       1441.5278    
    408000   2808.2624     -589.17489      0             -554.69023      22803.658      1440.7815    
    409000   2898.5707     -585.38289      0             -549.78928      9849.6897      1436.6048    
    410000   3064.0367     -591.92844      0             -554.30295     -15134.053      1429.0009    
    411000   2690.4063     -594.62779      0             -561.59037     -11666.108      1451.4077    
    412000   2951.5596     -590.32268      0             -554.07838     -10466.94       1472.1094    
    413000   2945.5633     -594.76435      0             -558.59368      2832.7296      1468.9444    
    414000   2964.1318     -586.30787      0             -549.90918     -21254.343      1490.8226    
    415000   2983.7175     -587.66836      0             -551.02917     -44295.674      1474.8376    
    416000   2692.3481     -595.30007      0             -562.23881     -45482.69       1481.1702    
    417000   3010.6373     -590.62021      0             -553.65044     -21781.652      1441.9688    
    418000   2693.2156     -595.40839      0             -562.33647      15264.489      1401.4682    
    419000   2574.1229     -596.01258      0             -564.40309      1198.8438      1393.3814    
    420000   2527.9175     -594.43996      0             -563.39785      10160.275      1389.8517    
    421000   2730.5965     -596.19043      0             -562.65948     -23626.855      1359.7227    
    422000   2578.2699     -596.18624      0             -564.52582     -19399.611      1417.346     
    423000   2587.9529     -593.35461      0             -561.57529      15035.627      1428.8409    
    424000   2718.1971     -597.38873      0             -564.01005     -37959.928      1426.6146    
    425000   2751.222      -596.94042      0             -563.1562      -5255.202       1404.3016    
    426000   3118.0328     -596.01967      0             -557.73112      37104.639      1410.2228    
    427000   2281.0151     -595.64676      0             -567.63655     -21438.223      1431.4046    
    428000   2428.6745     -592.58334      0             -562.75991      36325.105      1457.0898    
    429000   3037.5641     -592.03886      0             -554.73844     -33493.444      1482.853     
    430000   2415.7503     -596.64733      0             -566.98261     -48948.309      1486.6832    
    431000   2434.5971     -591.54302      0             -561.64686     -16767.802      1466.0261    
    432000   2396.7169     -593.13533      0             -563.70433      14376.351      1462.5619    
    433000   2409.3597     -594.27269      0             -564.68644     -2926.9021      1455.019     
    434000   2504.2061     -590.13157      0             -559.38064      55917.348      1381.8294    
    435000   2284.9871     -594.22951      0             -566.17052      29128.95       1353.8966    
    436000   2314.3761     -593.06957      0             -564.64969      5616.7489      1342.2734    
    437000   2607.324      -593.28848      0             -561.27129     -24031.3        1352.3099    
    438000   2319.5576     -595.75696      0             -567.27346     -13366.919      1372.2324    
    439000   2523.976      -597.33855      0             -566.34484     -9452.0608      1411.2772    
    440000   2803.9662     -594.7982       0             -560.3663      -2921.1539      1410.2372    
    441000   2561.0805     -597.9464       0             -566.49706     -1703.7379      1420.326     
    442000   2489.8548     -597.51533      0             -566.94063     -28596.317      1437.8056    
    443000   2345.6003     -591.81687      0             -563.01357      2387.2414      1400.4815    
    444000   2330.3113     -596.72745      0             -568.1119      -16124.79       1382.9875    
    445000   2294.9792     -600.22653      0             -572.04484     -9968.9166      1389.6885    
    446000   2754.2494     -599.6904       0             -565.869        16218.475      1384.1813    
    447000   2559.851      -599.47005      0             -568.03581     -24567.895      1386.4801    
    448000   2394.2217     -597.70355      0             -568.3032       16498.951      1356.5842    
    449000   2523.1469     -600.98083      0             -569.9973       9085.4444      1341.3972    
    450000   2447.9643     -595.51021      0             -565.44991     -25053.457      1365.7273    
    451000   2382.7452     -600.39198      0             -571.13255      13279.54       1393.2594    
    452000   2390.6706     -598.96537      0             -569.60862     -12707.857      1372.6294    
    453000   2336.1743     -605.63727      0             -576.94972     -11371.897      1370.0883    
    454000   2546.0954     -594.03422      0             -562.7689       13151.951      1379.2673    
    455000   2243.3125     -598.61976      0             -571.07253     -5464.1846      1386.6383    
    456000   2262.284      -601.42974      0             -573.64954      819.4519       1426.3714    
    457000   2252.4749     -598.49867      0             -570.83892     -24687.269      1395.677     
    458000   1885.71       -601.10215      0             -577.94617      2475.9603      1356.5848    
    459000   2080.034      -597.36559      0             -571.82337      13822.504      1349.7834    
    460000   1983.2996     -600.4677       0             -576.11335     -1659.6034      1339.0481    
    461000   2456.7828     -603.40305      0             -573.23446      21003.689      1370.0956    
    462000   2418.7741     -598.56255      0             -568.8607      -27655.366      1387.0092    
    463000   1984.7798     -602.22773      0             -577.8552       1689.644       1402.8078    
    464000   2151.5199     -597.81713      0             -571.39708     -27964.252      1397.4136    
    465000   2128.4214     -602.82822      0             -576.69182      18142.958      1394.215     
    466000   2353.0954     -601.06767      0             -572.17233      9002.9159      1376.6964    
    467000   1930.0678     -600.39413      0             -576.69345     -24477.357      1383.5987    
    468000   2166.3354     -603.31458      0             -576.7126      -2855.1677      1386.307     
    469000   1865.2725     -597.28846      0             -574.38345     -11733.949      1447.9966    
    470000   2151.9438     -601.00151      0             -574.57626      1493.4302      1368.6966    
    471000   2274.2936     -601.38479      0             -573.45712      12348.185      1394.0071    
    472000   1977.0173     -603.32689      0             -579.04968     -18799.458      1363.079     
    473000   2345.9183     -601.34806      0             -572.54086      39308.115      1352.5427    
    474000   1968.1904     -605.34432      0             -581.17551      3271.3188      1358.7468    
    475000   2035.2876     -599.47087      0             -574.47813     -4060.9818      1392.9063    
    476000   1994.5157     -603.80747      0             -579.31539      11102.958      1393.9246    
    477000   2497.789      -600.67424      0             -570.00211      6964.9222      1385.6668    
    478000   1916.2895     -603.03574      0             -579.50425      15472.727      1344.0477    
    479000   1994.2813     -606.49343      0             -582.00423     -18199.849      1368.0295    
    480000   1812.4374     -602.43241      0             -580.1762      -9924.0705      1367.5993    
Loop time of 6.32912 on 1 procs for 80000 steps with 96 atoms

Performance: 1092.096 ns/day, 0.022 hours/ns, 12639.997 timesteps/s, 1.213 Matom-step/s
99.4% CPU use with 1 MPI tasks x no OpenMP threads

MPI task timing breakdown:
Section |  min time  |  avg time  |  max time  |%varavg| %total
---------------------------------------------------------------
Pair    | 5.3744     | 5.3744     | 5.3744     |   0.0 | 84.91
Bond    | 0.0025185  | 0.0025185  | 0.0025185  |   0.0 |  0.04
Neigh   | 0.27762    | 0.27762    | 0.27762    |   0.0 |  4.39
Comm    | 0.20172    | 0.20172    | 0.20172    |   0.0 |  3.19
Output  | 0.0091964  | 0.0091964  | 0.0091964  |   0.0 |  0.15
Modify  | 0.432      | 0.432      | 0.432      |   0.0 |  6.83
Other   |            | 0.03169    |            |       |  0.50

Nlocal:             96 ave          96 max          96 min
Histogram: 1 0 0 0 0 0 0 0 0 0
Nghost:            544 ave         544 max         544 min
Histogram: 1 0 0 0 0 0 0 0 0 0
Neighs:              0 ave           0 max           0 min
Histogram: 1 0 0 0 0 0 0 0 0 0
FullNghs:         3050 ave        3050 max        3050 min
Histogram: 1 0 0 0 0 0 0 0 0 0

Total # of neighbors = 3050
Ave neighs/atom = 31.770833
Ave special neighs/atom = 0
Neighbor list builds = 2213
Dangerous builds = 0

fix npt1 all npt temp 2000 2000 0.1 iso 0 0 1
run 80000
Per MPI rank memory allocation (min/avg/max) = 8.549 | 8.549 | 8.549 Mbytes
   Step          Temp          E_pair         E_mol          TotEng         Press          Volume    
    480000   1812.4374     -602.43241      0             -580.1762      -9924.0705      1367.5993    
    481000   1929.2688     -602.25326      0             -578.56239     -2193.176       1354.3856    
    482000   2127.6616     -611.63585      0             -585.50878     -7678.7017      1349.4933    
    483000   1903.9666     -599.46317      0             -576.083       -5006.8781      1412.8756    
    484000   1947.782      -605.54245      0             -581.62424     -9597.9586      1382.4658    
    485000   1864.0549     -602.1391       0             -579.24903     -13960.781      1383.3167    
    486000   2082.2424     -607.0158       0             -581.44646     -12132.817      1408.8049    
    487000   2055.22       -604.33973      0             -579.10221      2784.5793      1359.6042    
    488000   1867.4859     -604.18651      0             -581.25431     -2514.3353      1296.0757    
    489000   1974.4168     -603.04412      0             -578.79884     -17760.098      1384.2103    
    490000   2098.6102     -603.5066       0             -577.73626     -17834.773      1348.184     
    491000   2092.3611     -606.40569      0             -580.71209      26806.91       1355.6361    
    492000   1964.5437     -606.28315      0             -582.15911      31310.57       1350.8911    
    493000   2077.9058     -601.98975      0             -576.47366     -11577.261      1359.155     
    494000   2108.6622     -603.84198      0             -577.94821     -14581.191      1386.3916    
    495000   2026.5107     -604.93397      0             -580.049        542.81815      1337.1465    
    496000   1861.9423     -601.98804      0             -579.12392     -6516.8376      1322.4917    
    497000   1929.4846     -600.41354      0             -576.72002     -35146.175      1425.8123    
    498000   1963.7726     -600.23814      0             -576.12357     -18914.548      1373.5301    
    499000   1886.8001     -604.83713      0             -581.66776     -7344.3264      1353.2842    
    500000   1906.1129     -604.83296      0             -581.42644      11528.404      1344.2709    
    501000   1710.6596     -602.66231      0             -581.6559      -11361.871      1422.8519    
    502000   2008.4813     -604.26212      0             -579.59855      26490.441      1356.554     
    503000   1774.4707     -603.63502      0             -581.84502      35846.137      1356.8525    
    504000   1923.0238     -600.75643      0             -577.14225     -14729.066      1367.7991    
    505000   1747.1438     -604.46831      0             -583.01388     -22303.389      1395.4736    
    506000   1768.3938     -601.52586      0             -579.81049      140.12694      1336.3921    
    507000   2108.41       -601.71624      0             -575.82556      21534.172      1330.1366    
    508000   1910.6109     -604.44318      0             -580.98142     -6155.7836      1346.2031    
    509000   2216.5496     -602.98662      0             -575.76803     -353.56584      1352.8065    
    510000   1991.3546     -604.8989       0             -580.44564      25579.497      1316.3033    
    511000   2140.4566     -600.52184      0             -574.23764      14632.258      1312.2371    
    512000   2062.3659     -605.32446      0             -579.9992      -13466.217      1361.2485    
    513000   2138.912      -605.16637      0             -578.90114      14541.727      1322.6081    
    514000   1957.3251     -605.2167       0             -581.18131      8045.3313      1307.826     
    515000   2042.1756     -602.75165      0             -577.67432     -8699.9078      1370.2188    
    516000   2082.0501     -607.45801      0             -581.89103     -40951.722      1393.4337    
    517000   1974.9712     -604.84699      0             -580.5949      -22542.092      1390.2328    
    518000   2132.6725     -602.30667      0             -576.11806      402.94027      1360.7816    
    519000   1670.0654     -605.81266      0             -585.30473     -25306.646      1397.4582    
    520000   1967.1314     -604.83634      0             -580.68053     -1240.5637      1350.3413    
    521000   2126.2065     -601.72337      0             -575.61416     -4104.5918      1359.459     
    522000   1911.066      -602.46119      0             -578.99384      14720.008      1346.3236    
    523000   1755.7705     -602.88298      0             -581.32262      11306.774      1330.9381    
    524000   2315.4521     -603.78753      0             -575.35444      17923.44       1388.9483    
    525000   1852.4969     -600.27425      0             -577.52612      21541.302      1333.5713    
    526000   1986.6066     -604.00318      0             -579.60822      27537.464      1365.1375    
    527000   2096.4272     -604.5144       0             -578.77088     -19413.043      1370.792     
    528000   2167.2446     -601.05152      0             -574.43838     -20535.095      1371.2216    
    529000   2053.5413     -606.00415      0             -580.78725     -29501.94       1365.7436    
    530000   1829.8534     -603.1578       0             -580.68773      11056.296      1297.3859    
    531000   2060.2221     -607.38063      0             -582.08169     -3846.9499      1374.9925    
    532000   2021.2346     -603.00275      0             -578.18256      19930.677      1365.8148    
    533000   1877.5926     -607.09291      0             -584.03661      21987.658      1364.366     
    534000   2020.4078     -605.77303      0             -580.963       -10309.814      1379.8306    
    535000   1790.6771     -605.07588      0             -583.08688      14735.462      1361.1072    
    536000   1923.1072     -602.66869      0             -579.05349     -7404.4265      1397.5759    
    537000   1826.5833     -604.26304      0             -581.83312     -22393.73       1380.8547    
    538000   2365.9235     -603.34043      0             -574.28757     -6846.3709      1368.2508    
    539000   2011.6686     -605.70331      0             -581.0006       6247.6586      1370.0399    
    540000   2077.6245     -602.13189      0             -576.61926     -4009.1103      1346.1556    
    541000   1886.7747     -603.91731      0             -580.74825     -14060.759      1379.8455    
    542000   2181.1314     -603.79065      0             -577.00698     -8819.2513      1357.4563    
    543000   2107.8269     -604.34861      0             -578.4651       4664.3499      1342.0393    
    544000   2034.6637     -601.42439      0             -576.43931     -11461.092      1386.3868    
    545000   2384.3862     -606.61729      0             -577.33771     -6813.3236      1358.0246    
    546000   2094.9173     -599.00392      0             -573.27893     -8708.1864      1394.6442    
    547000   2024.1615     -605.79414      0             -580.93801      14405.761      1346.4385    
    548000   2035.7564     -602.76442      0             -577.76592      11300.583      1335.1388    
    549000   1820.6492     -606.14574      0             -583.78869      28600.949      1376.9691    
    550000   2228.8219     -605.88251      0             -578.51322      19679.603      1336.5142    
    551000   1914.2392     -606.25547      0             -582.74916     -5661.1502      1370.6925    
    552000   2250.4521     -601.9944       0             -574.35949      934.32643      1382.6233    
    553000   2268.568      -606.42472      0             -578.56735      22600.17       1294.0123    
    554000   1744.7034     -607.28481      0             -585.86035      21023.069      1347.3365    
    555000   2168.2794     -605.05638      0             -578.43053      2875.5264      1377.6285    
    556000   1954.6063     -605.95136      0             -581.94935     -13006.997      1394.3474    
    557000   2202.2856     -603.60148      0             -576.55804      10543.16       1351.511     
    558000   1949.4416     -605.87838      0             -581.9398      -14578.928      1398.5211    
    559000   2037.0177     -603.82618      0             -578.81218      2251.0757      1389.49      
    560000   2213.8465     -601.50644      0             -574.32104     -14143.348      1328.2988    
Loop time of 6.4643 on 1 procs for 80000 steps with 96 atoms

Performance: 1069.258 ns/day, 0.022 hours/ns, 12375.671 timesteps/s, 1.188 Matom-step/s
99.4% CPU use with 1 MPI tasks x no OpenMP threads

MPI task timing breakdown:
Section |  min time  |  avg time  |  max time  |%varavg| %total
---------------------------------------------------------------
Pair    | 5.5381     | 5.5381     | 5.5381     |   0.0 | 85.67
Bond    | 0.0026569  | 0.0026569  | 0.0026569  |   0.0 |  0.04
Neigh   | 0.2367     | 0.2367     | 0.2367     |   0.0 |  3.66
Comm    | 0.20297    | 0.20297    | 0.20297    |   0.0 |  3.14
Output  | 0.0096855  | 0.0096855  | 0.0096855  |   0.0 |  0.15
Modify  | 0.44185    | 0.44185    | 0.44185    |   0.0 |  6.84
Other   |            | 0.03234    |            |       |  0.50

Nlocal:             96 ave          96 max          96 min
Histogram: 1 0 0 0 0 0 0 0 0 0
Nghost:            548 ave         548 max         548 min
Histogram: 1 0 0 0 0 0 0 0 0 0
Neighs:              0 ave           0 max           0 min
Histogram: 1 0 0 0 0 0 0 0 0 0
FullNghs:         3196 ave        3196 max        3196 min
Histogram: 1 0 0 0 0 0 0 0 0 0

Total # of neighbors = 3196
Ave neighs/atom = 33.291667
Ave special neighs/atom = 0
Neighbor list builds = 1855
Dangerous builds = 0

fix npt1 all npt temp 2000 1000 0.1 iso 0 0 1
run 80000
Per MPI rank memory allocation (min/avg/max) = 8.549 | 8.549 | 8.549 Mbytes
   Step          Temp          E_pair         E_mol          TotEng         Press          Volume    
    560000   2213.8465     -601.50644      0             -574.32104     -14143.348      1328.2988    
    561000   1992.3425     -606.67384      0             -582.20844     -15466.431      1423.3221    
    562000   1865.7367     -608.16083      0             -585.25011      1425.6269      1401.148     
    563000   2118.5951     -605.02219      0             -579.00644      33224.865      1364.6188    
    564000   1628.7283     -604.29187      0             -584.29155     -9713.584       1458.7197    
    565000   2341.4055     -602.90386      0             -574.15207      11692.102      1393.6293    
    566000   1925.7847     -605.11448      0             -581.46639     -18897.342      1399.1538    
    567000   1918.3044     -607.4139       0             -583.85767      6404.2183      1388.3887    
    568000   2021.7055     -606.02934      0             -581.20338     -2341.2404      1425.6578    
    569000   2107.4955     -605.12981      0             -579.25037     -5960.4367      1402.4162    
    570000   1876.2879     -607.11656      0             -584.07628     -11439.208      1357.1247    
    571000   1785.6092     -603.95833      0             -582.03156     -8890.1075      1431.9254    
    572000   1780.1886     -606.20204      0             -584.34183     -9877.611       1409.3288    
    573000   1842.6849     -605.63116      0             -583.00352     -7825.4578      1403.7211    
    574000   1906.6146     -604.20949      0             -580.7968       7656.7575      1411.4795    
    575000   1647.9076     -607.35743      0             -587.12159      13125.08       1389.9998    
    576000   1902.9221     -606.8935       0             -583.52616      19618.703      1397.9483    
    577000   1863.7999     -606.60734      0             -583.72041     -35644.496      1467.1544    
    578000   1748.648      -607.53662      0             -586.06373     -4810.6286      1412.6561    
    579000   1727.3244     -609.04645      0             -587.8354       1559.2042      1393.6265    
    580000   1466.9338     -607.12511      0             -589.11158      471.75739      1421.7038    
    581000   1778.479      -607.17863      0             -585.33941      8040.1701      1388.3667    
    582000   1740.8562     -609.14405      0             -587.76683      6663.0725      1413.1896    
    583000   1671.4557     -610.64212      0             -590.11713     -7413.3999      1411.5407    
    584000   1620.3027     -608.39708      0             -588.50022     -17294.599      1412.3249    
    585000   1799.4245     -607.54115      0             -585.44473      45995.307      1364.4932    
    586000   1361.0999     -608.60832      0             -591.8944       14518.943      1381.6571    
    587000   2107.039      -611.73598      0             -585.86215     -20143.639      1417.0749    
    588000   1757.2686     -609.80581      0             -588.22705     -4674.2023      1422.5264    
    589000   1682.3895     -610.913        0             -590.25373      11786.05       1365.4351    
    590000   1688.3779     -606.86391      0             -586.13111      24703.97       1341.7953    
    591000   1445.475      -606.98883      0             -589.23881     -13791.215      1427.607     
    592000   1583.405      -610.03264      0             -590.58888      6899.9113      1406.706     
    593000   1654.0428     -611.16436      0             -590.85319     -13095.994      1394.727     
    594000   1597.3784     -607.84814      0             -588.23279     -10429.741      1400.2985    
    595000   1361.7262     -612.20992      0             -595.48831      7718.3588      1398.7336    
    596000   1588.7914     -609.09669      0             -589.58679     -13468.153      1417.2523    
    597000   1743.8458     -607.3397       0             -585.92578     -535.55735      1408.8441    
    598000   1576.5923     -611.19469      0             -591.83459     -14308.57       1431.5795    
    599000   1668.6889     -609.37719      0             -588.88616     -2773.0905      1393.4488    
    600000   1537.7168     -612.16815      0             -593.28543      22116.714      1361.9678    
    601000   1385.4517     -610.83855      0             -593.8256       21238.613      1388.1608    
    602000   1707.7031     -609.65403      0             -588.68392      9648.4168      1397.9212    
    603000   1444.6932     -610.89291      0             -593.15249      3129.6314      1407.6256    
    604000   1319.4434     -610.97554      0             -594.77316      10884.998      1422.6879    
    605000   1525.8547     -610.03917      0             -591.30211     -5298.7944      1395.9495    
    606000   1394.081      -611.98213      0             -594.86321      25147.74       1390.2324    
    607000   1471.1661     -608.57933      0             -590.51383      30132.938      1394.5082    
    608000   1287.9627     -611.21728      0             -595.40146     -9143.3357      1393.6943    
    609000   1349.9224     -612.38629      0             -595.80963      19596.467      1374.2928    
    610000   1387.8388     -612.58469      0             -595.54243     -4290.295       1408.1063    
    611000   1455.3338     -612.34625      0             -594.47517      16779.071      1352.5744    
    612000   1154.7496     -613.40367      0             -599.22368     -2021.5584      1371.9908    
    613000   1441.7922     -611.96587      0             -594.26107     -19231.89       1439.8234    
    614000   1121.0598     -614.14948      0             -600.38319     -13357.525      1435.923     
    615000   1446.6138     -613.08248      0             -595.31848      4736.3917      1372.6837    
    616000   1289.2233     -615.70073      0             -599.86943     -4810.4933      1367.1822    
    617000   1314.4779     -613.17744      0             -597.03602      972.62802      1394.7534    
    618000   1253.9219     -614.53137      0             -599.13357      4490.7647      1406.3676    
    619000   1337.9565     -613.6787       0             -597.24898     -192.32861      1365.3527    
    620000   1174.4518     -615.54475      0             -601.12282     -12190.82       1431.3415    
    621000   1116.4779     -611.90234      0             -598.19231      10920.38       1413.7254    
    622000   1202.4633     -615.00212      0             -600.23621      13261.383      1383.8019    
    623000   1272.2396     -613.92228      0             -598.29954     -17212.401      1404.5636    
    624000   1190.1222     -612.83058      0             -598.21622     -16858.339      1394.3858    
    625000   1176.8743     -615.53742      0             -601.08574     -18164.603      1410.7261    
    626000   1018.849      -616.24783      0             -603.73665      8824.5565      1383.6574    
    627000   1192.1994     -615.86574      0             -601.22587      1849.6666      1394.4615    
    628000   1163.1015     -614.10826      0             -599.82571     -10415.214      1383.5707    
    629000   1074.965      -615.07529      0             -601.87503     -17864.587      1415.0389    
    630000   1159.277      -613.09837      0             -598.86278      6022.8777      1371.2584    
[...]
Neighs:              0 ave           0 max           0 min
Histogram: 1 0 0 0 0 0 0 0 0 0
FullNghs:         2972 ave        2972 max        2972 min
Histogram: 1 0 0 0 0 0 0 0 0 0

Total # of neighbors = 2972
Ave neighs/atom = 30.958333
Ave special neighs/atom = 0
Neighbor list builds = 129
Dangerous builds = 0


fix npt1 all npt temp 500 10 0.1 iso 0 0 1
run 80000
Per MPI rank memory allocation (min/avg/max) = 8.549 | 8.549 | 8.549 Mbytes
   Step          Temp          E_pair         E_mol          TotEng         Press          Volume    
    880000   470.95472     -623.43981      0             -617.65662     -7594.5437      1369.6464    
    881000   432.24939     -624.78805      0             -619.48015      10236.064      1369.391     
    882000   470.98383     -623.21308      0             -617.42954     -8006.787       1363.3256    
    883000   495.88645     -624.73027      0             -618.64093     -3157.1374      1376.7586    
    884000   539.39506     -623.61717      0             -616.99355     -12268.344      1386.2801    
    885000   497.71788     -625.06238      0             -618.95055      21991.48       1355.4241    
    886000   503.56555     -624.05473      0             -617.87109     -2655.0721      1387.558     
    887000   456.18266     -624.48004      0             -618.87825      6313.4529      1365.8061    
    888000   477.09848     -624.64878      0             -618.79015     -4323.3982      1378.6422    
    889000   439.24048     -625.3275       0             -619.93375      8174.8975      1368.0521    
    890000   463.66448     -624.47533      0             -618.78167      519.14571      1379.433     
    891000   408.84505     -625.51885      0             -620.49835     -1919.5407      1383.4513    
    892000   457.36356     -624.77054      0             -619.15425     -11762.799      1398.9099    
    893000   440.83305     -624.64182      0             -619.22852     -3856.1051      1374.3105    
    894000   390.75156     -624.81248      0             -620.01416      2423.7698      1366.7634    
    895000   408.65137     -624.55071      0             -619.53259     -4701.1125      1382.0088    
    896000   381.58016     -625.36867      0             -620.68298     -8735.7752      1376.7376    
    897000   442.94506     -625.26081      0             -619.82158     -638.34905      1380.0964    
    898000   358.46832     -625.92906      0             -621.52717     -5044.9728      1391.5792    
    899000   427.46946     -625.52044      0             -620.27123     -1496.7982      1377.7154    
    900000   301.67416     -625.5985       0             -621.89403      2920.1219      1374.9555    
    901000   393.64384     -625.78399      0             -620.95015      12946.494      1374.4249    
    902000   329.13698     -625.79317      0             -621.75147      193.07736      1364.0378    
    903000   360.64749     -625.6345       0             -621.20585     -21935.276      1370.4286    
    904000   316.13314     -625.94434      0             -622.06231     -7407.0686      1383.7346    
    905000   336.40105     -626.29403      0             -622.16312      11093.571      1348.0128    
    906000   335.62951     -626.03914      0             -621.9177       13267.637      1361.5918    
    907000   320.0566      -625.98192      0             -622.05171      4206.9146      1379.7147    
    908000   292.14521     -626.1426       0             -622.55514      10375.457      1358.9533    
    909000   320.00616     -625.72453      0             -621.79494      5354.802       1370.0975    
    910000   256.49965     -626.994        0             -623.84426     -1591.2726      1368.1504    
    911000   296.46442     -626.16199      0             -622.52149     -376.65821      1371.1731    
    912000   287.92095     -626.57884      0             -623.04326     -1657.4182      1358.0486    
    913000   339.13987     -626.29717      0             -622.13263     -7711.0448      1381.07      
    914000   276.53616     -626.57943      0             -623.18364      2276.9372      1375.1681    
    915000   277.21585     -626.26022      0             -622.85608      1491.5892      1364.8089    
    916000   300.25834     -626.89589      0             -623.2088       8375.4721      1352.5919    
    917000   276.60996     -627.27509      0             -623.8784       4175.4259      1375.2298    
    918000   279.74586     -626.86815      0             -623.43295     -294.33243      1363.4085    
    919000   282.58014     -626.94512      0             -623.47511     -715.69184      1359.0496    
    920000   228.93272     -627.17702      0             -624.36579     -9340.198       1375.1109    
    921000   280.78928     -627.24662      0             -623.79861      11758.624      1362.8862    
    922000   255.14963     -627.51004      0             -624.37687     -70.821979      1369.4192    
    923000   286.73361     -627.77337      0             -624.25237     -7919.7603      1374.3621    
    924000   222.5955      -627.57182      0             -624.83841     -215.65617      1362.2399    
    925000   238.08973     -627.11545      0             -624.19178     -12560.203      1393.2915    
    926000   207.66979     -627.61194      0             -625.06182      4114.5862      1361.6729    
    927000   205.9831      -627.76465      0             -625.23523     -1941.9571      1367.1511    
    928000   214.55944     -627.90558      0             -625.27085      16336.592      1365.5304    
    929000   187.1663      -627.70726      0             -625.40892     -1280.0328      1368.5317    
    930000   218.50231     -627.48897      0             -624.80582     -5444.2487      1371.3693    
    931000   186.25474     -628.21632      0             -625.92917      933.22654      1357.7572    
    932000   178.48003     -627.8491       0             -625.65742     -3401.5464      1363.7777    
    933000   196.32034     -628.44003      0             -626.02927     -4391.8628      1383.895     
    934000   167.88799     -628.70862      0             -626.647        7226.8227      1359.2946    
    935000   165.57643     -628.31514      0             -626.28191      8530.6615      1368.5392    
    936000   147.23827     -628.09631      0             -626.28827      6679.8038      1365.2186    
    937000   167.8848      -628.77973      0             -626.71815     -4116.0072      1375.0544    
    938000   172.89977     -628.69923      0             -626.57607      731.53052      1362.0748    
    939000   137.19117     -628.78383      0             -627.09916      1270.1879      1368.1985    
    940000   131.34071     -628.90715      0             -627.29433     -5383.7902      1372.9152    
    941000   115.883       -628.95289      0             -627.52988      2467.572       1370.5667    
    942000   123.42363     -628.87398      0             -627.35837      2275.1053      1370.2504    
    943000   105.3643      -628.92782      0             -627.63398      6134.6888      1365.2589    
    944000   128.79831     -629.01533      0             -627.43372      592.47685      1365.0954    
    945000   131.43424     -629.25641      0             -627.64244     -1478.6492      1370.5099    
    946000   94.95334      -629.20596      0             -628.03996     -328.8904       1371.6193    
    947000   90.427656     -629.32548      0             -628.21505      137.30948      1360.1862    
    948000   81.986391     -629.48422      0             -628.47745      6029.062       1364.1708    
    949000   78.518916     -629.50358      0             -628.53939      1511.6315      1364.4789    
    950000   78.948137     -629.52838      0             -628.55892     -1084.7893      1363.9286    
    951000   68.741418     -629.62207      0             -628.77794      1288.9038      1369.3313    
    952000   64.805522     -629.73176      0             -628.93596      4653.8574      1359.4433    
    953000   53.159579     -629.73042      0             -629.07764      187.80154      1364.7337    
    954000   43.141288     -629.84021      0             -629.31045     -530.3575       1367.2867    
    955000   34.928262     -629.9136       0             -629.48469      1138.7644      1364.2991    
    956000   36.868221     -629.90978      0             -629.45705      605.28683      1363.5977    
    957000   26.767778     -630.05146      0             -629.72276     -3061.1267      1370.0906    
    958000   22.970902     -630.13989      0             -629.85782      2584.775       1367.5721    
    959000   15.682648     -630.22513      0             -630.03255      3710.6013      1362.7894    
    960000   10.87871      -630.27256      0             -630.13897      1568.2294      1366.3056    
Loop time of 5.84014 on 1 procs for 80000 steps with 96 atoms

Performance: 1183.534 ns/day, 0.020 hours/ns, 13698.305 timesteps/s, 1.315 Matom-step/s
98.9% CPU use with 1 MPI tasks x no OpenMP threads

MPI task timing breakdown:
Section |  min time  |  avg time  |  max time  |%varavg| %total
---------------------------------------------------------------
Pair    | 5.1755     | 5.1755     | 5.1755     |   0.0 | 88.62
Bond    | 0.002564   | 0.002564   | 0.002564   |   0.0 |  0.04
Neigh   | 0.0031743  | 0.0031743  | 0.0031743  |   0.0 |  0.05
Comm    | 0.18391    | 0.18391    | 0.18391    |   0.0 |  3.15
Output  | 0.010931   | 0.010931   | 0.010931   |   0.0 |  0.19
Modify  | 0.43603    | 0.43603    | 0.43603    |   0.0 |  7.47
Other   |            | 0.02803    |            |       |  0.48

Nlocal:             96 ave          96 max          96 min
Histogram: 1 0 0 0 0 0 0 0 0 0
Nghost:            533 ave         533 max         533 min
Histogram: 1 0 0 0 0 0 0 0 0 0
Neighs:              0 ave           0 max           0 min
Histogram: 1 0 0 0 0 0 0 0 0 0
FullNghs:         3030 ave        3030 max        3030 min
Histogram: 1 0 0 0 0 0 0 0 0 0

Total # of neighbors = 3030
Ave neighs/atom = 31.5625
Ave special neighs/atom = 0
Neighbor list builds = 25
Dangerous builds = 0

fix npt1 all npt temp 10 10 0.1 iso 0 0 1
run 80000
Per MPI rank memory allocation (min/avg/max) = 8.549 | 8.549 | 8.549 Mbytes
   Step          Temp          E_pair         E_mol          TotEng         Press          Volume    
    960000   10.87871      -630.27256      0             -630.13897      1568.2294      1366.3056    
    961000   9.0324969     -630.27115      0             -630.16023      206.52778      1362.9744    
    962000   8.7482514     -630.26157      0             -630.15415     -1834.5032      1365.5535    
    963000   11.088227     -630.24661      0             -630.11045     -1184.585       1365.9195    
    964000   10.108243     -630.26371      0             -630.13958     -99.622822      1367.8874    
    965000   8.871506      -630.25368      0             -630.14474     -1856.3344      1365.5692    
    966000   9.7958546     -630.24816      0             -630.12787      481.49799      1366.5511    
    967000   9.6930685     -630.25882      0             -630.13979     -233.51772      1366.4749    
    968000   9.5918048     -630.25492      0             -630.13713      409.77828      1364.4988    
    969000   10.148993     -630.24498      0             -630.12036      2556.3528      1364.7434    
    970000   10.577871     -630.28195      0             -630.15206      3026.0797      1362.9787    
    971000   10.933422     -630.25717      0             -630.12291      4381.7113      1363.5858    
    972000   7.9189518     -630.2465       0             -630.14926      888.15632      1363.4993    
    973000   11.061026     -630.24897      0             -630.11314      3544.0372      1365.238     
    974000   10.384383     -630.2731       0             -630.14558      2062.3159      1364.5558    
    975000   9.7918299     -630.27371      0             -630.15347      1251.3757      1366.8317    
    976000   10.040955     -630.25566      0             -630.13236     -236.01062      1365.8529    
    977000   10.0203       -630.26822      0             -630.14518      403.83194      1366.4619    
    978000   11.130924     -630.24058      0             -630.10389      616.69011      1366.8045    
    979000   10.514864     -630.27443      0             -630.14531     -410.50828      1365.9865    
    980000   9.040076      -630.26165      0             -630.15064     -864.27361      1364.3068    
    981000   10.495167     -630.24568      0             -630.1168      -1554.8915      1367.7211    
    982000   9.5520787     -630.26512      0             -630.14783     -1469.4702      1366.2403    
    983000   10.307878     -630.24573      0             -630.11915      1051.2573      1369.285     
    984000   10.020105     -630.24978      0             -630.12673      4530.4685      1366.0357    
    985000   8.7917781     -630.25128      0             -630.14332      765.33824      1364.619     
    986000   9.075403      -630.23896      0             -630.12751     -638.25039      1364.5973    
    987000   9.5972318     -630.27486      0             -630.15701     -2186.6041      1367.6964    
    988000   11.744934     -630.25419      0             -630.10996     -1766.663       1365.9397    
    989000   9.026308      -630.26596      0             -630.15512     -1132.7737      1368.6292    
    990000   9.8731293     -630.24865      0             -630.12741      455.99222      1365.6422    
    991000   8.2433619     -630.27181      0             -630.17058     -1640.9556      1366.9261    
    992000   10.421628     -630.26214      0             -630.13416     -2075.6841      1367.9944    
    993000   9.9082144     -630.27051      0             -630.14884     -1582.2972      1366.4015    
    994000   11.152498     -630.2452       0             -630.10825     -1778.1663      1367.2831    
    995000   11.59862      -630.27105      0             -630.12862     -362.26808      1366.3131    
    996000   9.0763437     -630.28148      0             -630.17003     -2792.3186      1365.5047    
    997000   9.968095      -630.25955      0             -630.13714      560.17012      1365.6441    
    998000   10.403209     -630.28082      0             -630.15307     -594.2727       1367.3489    
    999000   8.6013194     -630.252        0             -630.14638      4720.2245      1363.0218    
   1000000   11.013751     -630.2504       0             -630.11515      772.60888      1364.5713    
   1001000   8.9708674     -630.25829      0             -630.14813      2528.1351      1365.1851    
   1002000   10.567241     -630.28351      0             -630.15374      285.34802      1365.8279    
   1003000   8.9858617     -630.25178      0             -630.14144      1253.0819      1364.0847    
   1004000   9.8100687     -630.25999      0             -630.13952     -1030.7566      1367.6824    
   1005000   9.3575252     -630.26121      0             -630.1463      -764.22062      1366.4222    
   1006000   9.9823234     -630.26275      0             -630.14017     -1276.6065      1366.7069    
   1007000   10.611849     -630.27206      0             -630.14175     -1377.4385      1366.8904    
   1008000   11.625337     -630.2514       0             -630.10864     -2469.7953      1365.3402    
   1009000   10.000506     -630.27302      0             -630.15022     -2055.6966      1368.1256    
   1010000   10.053517     -630.25199      0             -630.12854     -1326.2189      1364.4541    
   1011000   9.9109224     -630.27389      0             -630.15218     -1811.1059      1367.0581    
   1012000   9.1461736     -630.25797      0             -630.14566     -3586.6518      1369.7628    
   1013000   8.1892906     -630.25213      0             -630.15157      612.60371      1363.743     
   1014000   10.731318     -630.25854      0             -630.12676     -1039.9312      1367.628     
   1015000   9.4488989     -630.26205      0             -630.14602     -1742.3065      1367.1562    
   1016000   8.8375136     -630.26195      0             -630.15342     -1534.1785      1367.2245    
   1017000   11.659244     -630.26017      0             -630.117        68.912074      1366.15      
   1018000   10.464254     -630.26987      0             -630.14137     -332.23065      1365.7051    
   1019000   10.601449     -630.25854      0             -630.12835     -1466.6357      1366.863     
   1020000   9.4534491     -630.25748      0             -630.14139     -101.85328      1364.7646    
   1021000   9.0263444     -630.25306      0             -630.14222     -1030.9097      1365.5056    
   1022000   7.9654868     -630.25578      0             -630.15797     -1429.1164      1366.6521    
   1023000   9.2693172     -630.26953      0             -630.1557       1623.9752      1364.4328    
   1024000   8.7824557     -630.26562      0             -630.15777     -1835.8038      1368.0027    
   1025000   9.4113276     -630.25504      0             -630.13948     -3308.1893      1366.9666    
   1026000   9.8710784     -630.24951      0             -630.1283      -1389.5315      1367.7396    
   1027000   9.7576254     -630.26299      0             -630.14317     -1273.6765      1368.1412    
   1028000   10.324452     -630.25569      0             -630.1289      -1415.2476      1367.0105    
   1029000   7.8916472     -630.25111      0             -630.1542       316.96936      1366.3015    
   1030000   10.317943     -630.25663      0             -630.12993     -1118.0256      1367.1327    
   1031000   9.7471011     -630.26114      0             -630.14145     -201.05919      1366.8081    
   1032000   9.6259696     -630.2481       0             -630.12989     -2914.3891      1369.1037    
   1033000   9.7940164     -630.26068      0             -630.14041      492.52918      1365.347     
   1034000   10.909668     -630.25829      0             -630.12432     -1141.8087      1367.6217    
   1035000   9.5872923     -630.25336      0             -630.13563      1401.3162      1364.4832    
   1036000   9.8843432     -630.27067      0             -630.1493      -237.42908      1366.2508    
   1037000   10.240482     -630.26045      0             -630.1347      -147.96665      1365.7121    
   1038000   10.229363     -630.26476      0             -630.13915     -2124.7954      1366.7999    
   1039000   10.175724     -630.28106      0             -630.15611     -2471.6028      1368.4925    
   1040000   10.486702     -630.26038      0             -630.13161     -573.83906      1368.6904    
Loop time of 5.70148 on 1 procs for 80000 steps with 96 atoms

Performance: 1212.317 ns/day, 0.020 hours/ns, 14031.443 timesteps/s, 1.347 Matom-step/s
98.8% CPU use with 1 MPI tasks x no OpenMP threads

MPI task timing breakdown:
Section |  min time  |  avg time  |  max time  |%varavg| %total
---------------------------------------------------------------
Pair    | 5.0482     | 5.0482     | 5.0482     |   0.0 | 88.54
Bond    | 0.0025918  | 0.0025918  | 0.0025918  |   0.0 |  0.05
Neigh   | 0          | 0          | 0          |   0.0 |  0.00
Comm    | 0.18147    | 0.18147    | 0.18147    |   0.0 |  3.18
Output  | 0.0094582  | 0.0094582  | 0.0094582  |   0.0 |  0.17
Modify  | 0.43312    | 0.43312    | 0.43312    |   0.0 |  7.60
Other   |            | 0.02666    |            |       |  0.47

Nlocal:             96 ave          96 max          96 min
Histogram: 1 0 0 0 0 0 0 0 0 0
Nghost:            527 ave         527 max         527 min
Histogram: 1 0 0 0 0 0 0 0 0 0
Neighs:              0 ave           0 max           0 min
Histogram: 1 0 0 0 0 0 0 0 0 0
FullNghs:         3026 ave        3026 max        3026 min
Histogram: 1 0 0 0 0 0 0 0 0 0

Total # of neighbors = 3026
Ave neighs/atom = 31.520833
Ave special neighs/atom = 0
Neighbor list builds = 0
Dangerous builds = 0


write_data amorphousSiO.data
System init for write_data ...


Total wall time: 0:01:22
