96
 Atoms. Timestep: 0
2 0 7.95642 4.74695
2 4.63304 0 11.358
2 0 4.63304 4.74695
2 7.95642 0 11.358
2 0 4.63304 8.47514
2 7.95642 0 1.8641
2 0 7.95642 8.47514
2 4.63304 0 1.8641
2 10.7421 8.43088 6.61105
2 4.15858 10.7421 0
2 1.84736 4.15858 6.61105
2 8.43088 1.84736 0
2 1.84736 8.43088 6.61105
2 8.43088 10.7421 0
2 10.7421 4.15858 6.61105
2 4.15858 1.84736 0
2 10.5201 6.29473 5.04003
2 6.29473 10.5201 11.6511
2 2.06934 6.29473 5.04003
2 6.29473 2.06934 11.6511
2 2.06934 6.29473 8.18207
2 6.29473 2.06934 1.57102
2 10.5201 6.29473 8.18207
2 6.29473 10.5201 1.57102
2 10.1594 8.65935 9.20274
2 3.93011 10.1594 2.59169
2 2.43004 3.93011 9.20274
2 8.65935 2.43004 2.59169
2 2.43004 8.65935 9.20274
2 8.65935 10.1594 2.59169
2 10.1594 3.93011 9.20274
2 3.93011 2.43004 2.59169
2 2.43004 3.93011 4.01936
2 8.65935 2.43004 10.6304
2 10.1594 8.65935 4.01936
2 3.93011 10.1594 10.6304
2 10.1594 3.93011 4.01936
2 3.93011 2.43004 10.6304
2 2.43004 8.65935 4.01936
2 8.65935 10.1594 10.6304
2 0 10.703 0
2 1.88643 0 6.61105
2 0 1.88643 0
2 10.703 0 6.61105
2 0 0 1.872
2 0 0 8.48305
2 0 0 11.3501
2 0 0 4.73905
2 11.2706 2.31295 2.18973
2 10.2765 11.2706 8.80078
2 1.31887 10.2765 2.18973
2 2.31295 1.31887 8.80078
2 1.31887 2.31295 2.18973
2 2.31295 11.2706 8.80078
2 11.2706 10.2765 2.18973
2 10.2765 1.31887 8.80078
2 1.31887 10.2765 11.0324
2 2.31295 1.31887 4.42131
2 11.2706 2.31295 11.0324
2 10.2765 11.2706 4.42131
2 11.2706 10.2765 11.0324
2 10.2765 1.31887 4.42131
2 1.31887 2.31295 11.0324
2 2.31295 11.2706 4.42131
1 11.0086 7.83654 8.10972
1 4.75292 11.0086 1.49867
1 1.5809 4.75292 8.10972
1 7.83654 1.5809 1.49867
1 1.5809 7.83654 8.10972
1 7.83654 11.0086 1.49867
1 11.0086 4.75292 8.10972
1 4.75292 1.5809 1.49867
1 1.5809 4.75292 5.11238
1 7.83654 1.5809 11.7234
1 11.0086 7.83654 5.11238
1 4.75292 11.0086 11.7234
1 11.0086 4.75292 5.11238
1 4.75292 1.5809 11.7234
1 1.5809 7.83654 5.11238
1 7.83654 11.0086 11.7234
1 10.1088 10.1088 3.30552
1 2.48067 10.1088 9.91657
1 2.48067 2.48067 3.30552
1 10.1088 2.48067 9.91657
1 2.48067 10.1088 3.30552
1 10.1088 10.1088 9.91657
1 10.1088 2.48067 3.30552
1 2.48067 2.48067 9.91657
1 0 1.60471 1.57853
1 10.9848 0 8.18958
1 0 10.9848 1.57853
1 1.60471 0 8.18958
1 0 10.9848 11.6436
1 1.60471 0 5.03252
1 0 1.60471 11.6436
1 10.9848 0 5.03252
96
 Atoms. Timestep: 2000
2 12.393 7.43311 4.96071
2 4.28347 12.0892 11.8766
2 -0.165322 4.85347 5.18658
2 8.49526 12.4461 12.3256
2 -0.186575 4.28309 8.28093
2 7.6637 12.6279 0.984529
2 12.7747 8.36101 7.65178
2 4.71482 12.0208 1.87312
2 10.4795 8.54976 6.5167
2 4.6564 10.2183 -0.157553
2 1.73607 4.1627 6.49902
2 8.30222 1.88257 0.00361622
2 1.14419 7.4677 6.52126
2 7.80243 10.2827 -0.0647176
2 10.4075 4.76219 6.60706
2 4.39201 0.829973 -0.126902
2 10.1944 6.85368 4.32365
2 6.73612 10.4398 11.1762
2 2.09531 6.17597 5.20862
2 6.50121 1.282 11.4399
2 1.17557 5.88465 8.52372
2 5.73745 1.55642 1.31401
2 11.5495 6.80329 8.57607
2 5.92472 9.72884 1.7683
2 10.6568 9.89813 8.52445
2 3.03513 10.0685 2.71166
2 2.20781 3.56458 9.44549
2 8.52561 1.57662 2.56537
2 1.74777 8.53605 9.66193
2 9.10546 10.9343 2.30994
2 10.0667 3.81334 9.0822
2 3.70126 1.73837 2.82214
2 2.40412 3.4457 4.4942
2 9.00958 2.13243 11.0478
2 10.5466 9.92603 4.14609
2 3.91509 10.1113 10.433
2 10.08 3.76998 4.06481
2 4.44545 2.18205 11.1202
2 1.48011 8.81353 4.48675
2 9.17621 10.6457 10.694
2 -0.144497 11.1431 -0.134842
2 1.60037 0.118904 6.6176
2 -0.0377708 1.86264 13.1422
2 11.4436 -0.0277859 6.59245
2 0.30257 0.325345 1.74173
2 0.282018 12.6562 8.62515
2 -0.0911595 12.7139 11.4327
2 -0.117771 0.45123 4.5315
2 10.967 1.67923 2.08641
2 10.9682 12.4194 9.1666
2 0.479827 10.1775 2.02423
2 2.76123 1.30279 9.20336
2 1.42112 2.35925 2.03602
2 2.74177 11.324 8.50874
2 11.1319 11.3621 1.75393
2 11.0378 1.57955 8.65172
2 1.36971 10.6153 11.5546
2 1.91547 1.10636 4.50315
2 11.4569 2.36826 10.6718
2 10.8278 12.0739 4.34424
2 11.7167 9.91946 11.0945
2 10.1722 1.60142 4.61077
2 1.57884 2.04364 10.7301
2 1.57924 11.1898 4.5302
1 11.0876 8.43 8.0214
1 4.34307 10.3488 1.5762
1 1.63 4.42718 8.27666
1 7.40037 1.37432 1.221
1 1.36569 7.50987 8.15692
1 7.60899 10.6726 1.5168
1 10.9869 5.07397 8.28476
1 4.45916 0.694127 1.62425
1 1.56173 4.68879 5.13753
1 8.14299 1.40404 12.1171
1 10.9556 8.36577 4.54246
1 4.94658 10.5687 11.5605
1 10.8574 4.94996 4.92515
1 4.91248 0.815632 12.059
1 0.919716 7.53191 4.89085
1 8.20804 10.8712 11.8786
1 10.2906 11.1989 3.24234
1 2.42919 10.2087 9.77422
1 2.3993 2.30644 3.42611
1 9.95602 2.40743 9.6924
1 1.75959 10.1261 3.49973
1 10.7377 10.7216 9.83844
1 9.91216 2.38943 3.26623
1 3.18092 2.59547 10.2385
1 12.6374 1.81681 1.25551
1 11.8165 0.172315 8.07486
1 -0.135831 11.85 1.31512
1 1.84784 0.116093 8.05718
1 -0.066318 11.0665 11.9379
1 1.20879 12.5232 5.08685
1 12.7265 1.49132 11.4383
1 11.2015 0.503627 5.0596
96
 Atoms. Timestep: 4000
2 12.5786 7.63357 4.42068
2 4.70026 12.6039 11.6289
2 0.00466343 5.06996 4.83486
2 8.35482 -0.252962 11.4552
2 11.8473 4.94995 8.69209
2 8.50633 0.0381622 1.6172
2 12.8144 8.9331 7.98603
2 5.52462 0.372411 2.02111
2 11.3278 8.20135 6.36455
2 4.15847 11.8602 0.263988
2 0.942439 4.51052 7.13326
2 8.29613 1.47813 12.9582
2 1.03672 7.32083 6.45642
2 8.09485 11.0787 0.0525507
2 10.0278 5.21927 6.33529
2 4.39655 1.31788 0.214249
2 10.4425 6.21416 4.61766
2 6.53367 10.726 12.2517
2 1.99223 5.82585 5.24362
2 5.93267 2.02814 10.9798
2 0.856802 6.61973 8.94046
2 6.92016 1.94871 1.76894
2 10.2304 7.08735 8.00477
2 5.95386 11.4196 2.291
2 10.176 9.31607 9.18136
2 3.07418 10.6083 2.34827
2 1.25006 4.03351 10.032
2 9.75674 2.41361 1.63575
2 2.32753 8.66629 8.81499
2 8.65774 10.7762 2.64607
2 10.1944 3.90506 8.91716
2 4.20166 2.01993 2.89654
2 1.87956 3.48617 4.27181
2 8.90347 2.63427 10.6322
2 10.8024 8.77786 3.3421
2 3.38347 11.0446 11.0462
2 11.1768 3.93081 3.34098
2 3.3097 2.65983 11.351
2 1.63896 8.45493 3.66003
2 9.16365 10.5206 11.1705
2 0.392101 10.4035 -0.286021
2 1.58006 12.1749 7.02963
2 0.181878 1.40125 13.1814
2 10.6733 12.9035 6.19897
2 0.56498 12.3981 1.42077
2 12.6268 -0.240667 8.56276
2 -0.479984 12.2637 11.6056
2 0.195301 12.4015 4.42606
2 12.5445 1.86051 1.87899
2 10.7792 11.6472 9.21743
2 0.37028 10.2102 2.85516
2 1.7054 1.28177 9.17903
2 1.83002 1.17799 2.18741
2 2.01791 11.2741 8.8015
2 11.0542 10.683 1.44705
2 11.1298 1.40698 8.17638
2 1.28333 10.0257 11.2268
2 1.78587 1.23088 4.63777
2 11.7186 1.66607 10.6691
2 11.1237 11.1118 4.18964
2 11.5417 10.4177 11.5236
2 11.1797 0.776455 3.55653
2 1.35109 1.07904 11.1536
2 1.95685 11.0002 4.8076
1 10.9351 8.53315 7.84936
1 4.32836 11.5237 1.86063
1 0.562365 4.9786 8.75328
1 8.43174 1.60038 1.17076
1 1.06837 8.20728 8.20066
1 7.6586 11.6804 1.80503
1 10.3176 5.18063 7.87221
1 5.24576 1.79986 1.59013
1 1.30438 4.41255 5.52047
1 7.58482 1.57266 11.3158
1 11.0867 7.87035 4.73814
1 4.59557 11.1068 12.3999
1 11.2637 4.69131 4.81856
1 4.48516 1.65695 11.9088
1 1.57194 7.30646 5.00924
1 8.08422 11.3921 12.1045
1 10.1875 10.2566 2.82419
1 2.27793 10.3843 9.89134
1 2.53275 1.97975 3.39935
1 10.5244 2.27262 9.57081
1 2.07664 9.91046 3.29927
1 10.483 10.3118 10.4171
1 10.9847 2.3777 2.67416
1 1.88283 2.52759 10.1795
1 0.423651 0.844252 1.12554
1 11.0115 12.7696 7.77046
1 12.7623 10.8135 1.3419
1 1.34409 -0.269666 8.55382
1 0.174184 10.6543 11.8745
1 1.59375 12.5024 5.31618
1 -0.21596 0.857009 11.785
1 11.5209 12.6366 4.6084
96
 Atoms. Timestep: 6000
2 12.0287 6.16442 4.648
2 5.46158 0.278196 11.0296
2 0.802689 2.28907 5.32051
2 8.03389 0.818699 10.574
2 0.849517 4.75428 7.35149
2 8.76091 12.4904 1.10513
2 0.0501249 8.69457 8.18016
2 5.33564 12.4612 2.34012
2 11.5345 9.34609 5.51808
2 4.82806 11.025 -0.0128316
2 2.58153 3.69503 6.48705
2 8.74521 2.56204 0.225683
2 0.914518 6.93036 6.6642
2 8.11078 11.0928 12.2974
2 10.715 5.39607 6.84351
2 4.43301 0.644841 12.8962
2 10.2187 5.78987 3.77408
2 6.13003 11.0275 11.1375
2 0.954028 5.14457 5.08352
2 5.93213 2.71417 10.5789
2 2.46345 6.55908 8.24353
2 6.69946 1.09154 1.22038
2 0.122552 6.2988 9.18018
2 6.51084 10.6434 1.0034
2 10.3405 9.52134 8.37285
2 3.88363 10.3394 2.9254
2 1.65821 3.82654 9.15045
2 8.3956 2.47124 2.46277
2 1.67231 8.05924 9.8201
2 8.7312 9.44601 0.331363
2 11.7875 3.8975 8.91613
2 3.9773 2.14863 1.81932
2 2.35752 3.21844 3.84403
2 8.78038 3.59398 10.0158
2 11.3647 7.71064 3.09304
2 3.37233 10.4641 10.9911
2 11.5455 3.48114 5.25992
2 3.2156 2.42251 11.2897
2 1.8495 8.79543 4.50069
2 8.72528 10.6098 10.0817
2 11.719 11.1091 -0.0077414
2 1.85157 -0.0278031 6.93756
2 11.9129 2.44482 0.454103
2 10.0159 12.346 7.36639
2 12.1998 12.5453 1.5439
2 12.484 12.5084 8.92992
2 12.4929 0.392386 11.9268
2 0.103189 10.8033 6.66587
2 11.825 2.29256 3.0228
2 10.5133 11.8599 9.87474
2 1.3502 11.1704 2.42421
2 2.08036 1.32565 9.64973
2 1.4522 1.4335 1.8667
2 1.50907 11.4585 9.2798
2 11.4509 10.4013 2.77926
2 10.5683 1.62781 8.8712
2 0.32121 10.1265 10.71
2 12.4886 0.310535 5.65715
2 11.3772 2.98176 11.0365
2 8.03989 1.26048 6.15185
2 10.9848 10.6031 11.3648
2 10.463 1.523 5.32143
2 0.753934 2.73624 11.7623
2 2.55623 11.4831 4.80476
1 11.8704 9.60405 7.41113
1 4.82737 10.969 1.69808
1 2.57791 4.69756 8.1573
1 8.34012 1.36228 1.21447
1 1.17403 7.47421 8.33024
1 8.13925 11.1661 0.570065
1 12.0973 5.17136 7.98918
1 5.1656 1.22694 1.08991
1 1.64266 3.71158 5.0679
1 7.4297 2.30015 9.89722
1 10.8749 6.11239 2.42977
1 4.59928 11.3645 11.7041
1 10.5854 4.8727 5.21944
1 4.65717 1.99552 11.387
1 0.946014 7.06059 4.72288
1 7.78984 11.8818 10.676
1 11.4611 9.1062 4.00376
1 1.95444 9.93066 10.0422
1 2.37609 2.27175 2.71963
1 10.6559 3.03489 9.76991
1 2.42803 10.2315 3.41197
1 10.0937 9.95942 10.0846
1 12.0246 1.94547 5.5344
1 1.66519 2.77196 10.195
1 12.4026 1.41361 1.78758
1 10.7511 0.177071 8.77071
1 12.3338 10.9216 1.64273
1 1.55001 0.258346 8.51065
1 12.4442 11.3759 11.7643
1 1.14022 12 5.80289
1 12.116 2.01055 12.1139
1 9.47351 0.448583 5.9977
96
 Atoms. Timestep: 8000
2 0.102476 7.4053 4.84185
2 4.83115 12.3167 11.2901
2 12.7585 3.95996 5.42728
2 8.83192 11.7663 11.5669
2 0.372321 4.40296 8.57089
2 8.36489 11.5837 1.04918
2 8.06559 -0.0234856 7.27294
2 5.62798 12.4754 1.84665
2 9.54461 11.0712 5.18926
2 4.73163 10.6895 0.206387
2 1.97946 3.5277 6.87302
2 9.25026 0.567666 12.8572
2 1.25011 8.20068 6.74471
2 8.21631 9.62862 0.0171152
2 11.2389 5.58308 6.75016
2 5.79743 1.87987 -0.0367429
2 9.24447 6.53924 5.00134
2 6.62317 10.036 11.4425
2 2.15821 5.86437 5.47485
2 6.90748 1.1564 11.145
2 1.66243 6.1971 8.24057
2 7.48807 1.25828 1.56021
2 12.3113 6.67511 8.53054
2 6.31764 9.97226 2.20601
2 9.40965 10.1052 7.65529
2 3.97271 10.4601 2.66828
2 2.55331 3.6384 9.74893
2 9.81697 1.01895 2.27074
2 1.06891 8.52568 9.70993
2 8.72917 10.707 2.93246
2 10.9498 4.32007 9.54792
2 4.7131 2.17703 2.81816
2 2.57512 3.63865 3.90635
2 9.593 1.95772 11.2616
2 9.23261 8.74345 4.20942
2 3.87692 9.91719 11.0094
2 10.9199 5.12992 4.72428
2 4.97447 1.72194 10.5203
2 2.14168 8.6051 4.37218
2 9.05137 9.39988 10.6544
2 11.6376 10.4656 -0.195461
2 1.18993 -0.319361 6.61272
2 0.664853 1.68569 13.1116
2 11.8818 11.9534 2.97628
2 0.470133 12.3899 1.10403
2 -0.0811485 0.759083 8.62666
2 -0.658656 -0.0866236 11.125
2 10.405 12.2044 7.1892
2 11.9357 1.64334 2.20009
2 8.67251 12.7234 9.6847
2 1.00431 10.3557 2.02467
2 2.67642 1.27188 9.04443
2 2.01117 1.64599 2.28987
2 2.27432 11.4436 9.37384
2 11.7027 9.84112 2.90922
2 10.3008 1.62103 9.04374
2 0.873958 10.2173 11.1553
2 12.4731 0.183029 4.61166
2 12.1118 2.64918 10.9725
2 2.05378 1.10003 4.30603
2 11.296 9.9602 10.3798
2 10.8881 2.03194 4.40943
2 2.2482 2.27814 11.2684
2 2.01305 10.984 4.65212
1 9.052 11.1776 6.74534
1 5.05587 11.0254 1.81378
1 2.0101 4.42585 8.38389
1 8.70201 0.431434 1.01638
1 0.969205 7.68493 8.34527
1 7.8473 10.1957 1.78548
1 11.8289 5.22063 8.2242
1 5.94129 1.38095 1.4733
1 1.6628 4.13697 5.11984
1 8.53936 0.63937 11.2592
1 7.99964 7.57849 4.81714
1 5.11675 10.5639 12.0189
1 11.0255 6.94383 5.29597
1 5.29451 1.11547 11.9951
1 1.62433 7.43398 5.44669
1 8.44265 10.1975 11.9654
1 10.1805 10.0855 3.84185
1 2.38414 9.85025 10.1987
1 3.1678 1.9812 3.3175
1 10.6725 2.82545 10.3578
1 2.39537 9.91224 3.33417
1 9.9126 9.3936 8.98963
1 10.8194 3.42907 5.15758
1 3.58253 2.39548 10.1857
1 0.6019 1.3532 1.32113
1 11.1245 0.890591 7.62995
1 12.1809 10.9438 1.50691
1 1.3914 -0.0220395 8.38901
1 12.0641 10.9185 11.5189
1 1.33138 12.6518 4.90636
1 0.548414 1.66881 11.1717
1 11.1303 0.885715 3.33371
96
 Atoms. Timestep: 10000
2 11.3971 6.54038 4.70476
2 5.51054 12.3299 12.1193
2 0.102112 4.14972 4.94519
2 9.09856 11.2335 11.8425
2 0.512006 5.34091 8.66185
2 8.15834 12.3955 1.29271
2 9.10979 10.4752 6.1348
2 5.23097 11.935 2.39348
2 11.1371 10.1882 4.74574
2 4.59887 10.2939 -0.110077
2 2.50324 4.96776 6.63012
2 8.8138 1.62482 0.212722
2 1.12341 7.47784 6.42319
2 8.25527 9.5747 -0.0953784
2 10.7273 5.9918 7.89639
2 5.64559 0.911892 0.132275
2 9.12305 7.19275 6.06502
2 6.51812 10.1579 11.1783
2 1.59495 5.87636 4.86516
2 7.12519 1.57584 12.3741
2 1.77711 6.8076 8.17303
2 6.58462 1.56472 2.21742
2 12.1599 8.9117 9.26315
2 6.63655 9.86471 1.42977
2 11.5045 10.2909 7.61062
2 3.82723 9.69886 2.61423
2 2.89953 3.74504 8.87273
2 9.32077 1.20975 3.15126
2 1.55287 8.78945 8.5207
2 9.19165 9.69412 2.54336
2 10.5802 3.61441 8.75523
2 4.29994 1.68152 2.91125
2 1.78548 3.3937 4.04736
2 9.25273 2.06527 10.5799
2 6.94894 8.48057 5.25513
2 3.28093 10.3334 10.9544
2 10.8322 4.57455 6.158
2 4.21243 2.01226 10.7588
2 1.39116 8.30241 3.64603
2 9.13969 9.41704 10.6919
2 0.758903 10.7521 -0.152804
2 1.94847 0.0620455 6.11528
2 12.6129 1.83365 13.1558
2 10.5029 12.0843 3.83396
2 0.76032 12.7126 2.02165
2 0.294201 0.0870582 7.40713
2 12.5924 12.5697 11.1481
2 11.2996 12.2574 6.40443
2 12.1454 1.73242 2.87623
2 9.37874 0.0702668 11.855
2 1.49917 9.91203 1.92508
2 2.78523 0.818482 8.67316
2 1.44625 2.2671 1.84483
2 2.12498 11.0132 8.48181
2 11.891 10.5237 1.98974
2 10.7918 1.42594 8.10962
2 0.559755 10.8319 10.5569
2 12.4578 0.00690241 3.95168
2 11.7835 1.79594 10.3008
2 2.2828 0.6162 3.6285
2 11.1309 10.4287 11.1188
2 11.2318 1.72204 5.20973
2 1.3393 1.4976 10.9643
2 1.20432 11.0065 4.18792
1 10.7149 10.7051 6.31808
1 5.24497 10.4719 1.8354
1 1.93127 5.01762 8.42705
1 8.39383 1.22778 1.82285
1 0.306132 7.94225 7.77794
1 8.15082 10.3429 1.21571
1 11.7123 5.079 9.06724
1 5.24954 0.706261 1.96922
1 1.76361 4.55334 5.3396
1 8.89831 1.6082 12.0174
1 8.51292 8.60218 5.46153
1 5.03049 10.6114 11.5989
1 10.6021 6.25137 6.0873
1 5.60361 1.12837 12.0321
1 0.519849 7.27204 4.91322
1 8.03511 9.96921 11.6435
1 10.8144 10.3924 3.17653
1 1.80396 10.1458 9.6979
1 2.68921 2.22619 3.18219
1 10.4317 2.19972 9.56114
1 2.14518 9.64137 3.36275
1 10.629 9.28542 9.93951
1 11.7811 3.19622 5.64741
1 2.69545 2.19043 9.75863
1 0.196822 1.36146 1.57351
1 11.9973 1.29838 6.98199
1 0.388214 10.9992 1.44702
1 1.95726 -0.0104924 7.77546
1 12.736 11.1024 12.0127
1 1.1274 12.6106 4.57642
1 12.5981 1.38231 11.5252
1 11.0102 0.77301 3.75641
96
 Atoms. Timestep: 12000
2 12.0322 7.29095 5.84424
2 5.73131 11.8583 11.4075
2 12.0654 4.79675 3.88294
2 8.41574 10.3184 11.6524
2 0.179177 4.54887 8.37054
2 7.86726 11.1862 2.52699
2 8.26388 9.49987 6.14586
2 5.06727 11.7478 2.38868
2 10.5627 9.91105 5.43081
2 4.6083 10.272 0.8407
2 1.26282 5.35798 6.25416
2 8.59946 0.290964 0.278456
2 0.942361 8.17676 7.47268
2 8.50031 8.43054 1.0295
2 9.82207 6.22316 7.01729
2 4.84499 0.997285 0.317941
2 9.06573 7.89462 4.48862
2 6.64651 9.80921 12.5816
2 1.2838 7.00842 4.54432
2 6.99654 1.22877 11.3893
2 1.80499 6.54129 9.03573
2 6.76437 1.07718 1.99986
2 12.0451 8.26746 9.92866
2 6.71578 9.17484 2.37181
2 9.91944 9.32113 8.72679
2 3.7761 9.40778 2.7686
2 3.20154 4.06121 8.76193
2 9.64928 0.568865 1.97405
2 2.79716 8.7286 8.57548
2 9.7587 9.71708 3.10339
2 9.97754 3.61404 8.59308
2 4.23966 2.2755 3.13236
2 2.41374 4.73863 3.95236
2 9.1833 1.27401 10.2912
2 6.02367 8.19833 5.02233
2 4.4013 9.94231 10.776
2 9.95944 5.34666 5.10985
2 4.20836 2.13328 10.7288
2 1.8004 9.20689 5.21341
2 9.68467 8.52113 11.7397
2 0.280133 10.3867 12.9396
2 2.14079 0.662888 6.38176
2 1.30543 2.07528 12.5878
2 10.4977 12.1993 4.22944
2 1.66258 0.300619 1.03715
2 0.276033 12.0955 7.96707
2 0.941229 12.1645 11.1547
2 10.8016 10.8893 7.35758
2 11.9955 1.51195 1.72892
2 8.08589 11.8089 10.9907
2 2.00259 10.4334 2.0877
2 2.88697 1.44602 8.15023
2 2.29643 3.13124 1.97757
2 3.04738 11.2669 8.64718
2 11.8011 11.1055 2.35491
2 10.12 1.51854 8.02636
2 1.22895 9.7169 9.70576
2 12.3874 1.27321 3.97251
2 11.7969 1.88928 10.2226
2 2.21471 2.14688 4.48341
2 11.3165 9.9199 11.0829
2 10.1561 2.87569 3.8782
2 2.1105 2.2724 10.2534
2 2.51324 11.6899 3.95092
1 9.51322 9.95586 7.00316
1 5.16017 10.0661 2.14734
1 1.87808 5.30447 8.12418
1 8.21123 12.4519 1.71082
1 1.21733 8.22044 9.05035
1 8.31432 9.4673 2.13823
1 10.627 5.02572 7.912
1 4.93014 0.961892 1.92297
1 1.12528 5.32619 4.5295
1 8.75756 0.810819 11.7815
1 7.52131 9.27703 4.86294
1 5.22104 10.4717 12.0906
1 10.3858 7.06681 5.62872
1 5.42274 1.65155 11.7694
1 1.12596 7.99846 5.83763
1 8.26212 8.815 12.3446
1 11.0039 10.5468 3.94433
1 3.87839 9.86493 9.32341
1 2.85106 3.20915 3.5004
1 10.1226 2.2583 9.60133
1 2.35233 9.94721 3.57218
1 10.614 8.43467 10.4103
1 10.7742 4.25133 4.45466
1 3.48398 2.63816 9.25455
1 1.25749 1.89305 1.29039
1 11.001 12.4624 7.72058
1 0.806386 11.0734 1.3276
1 1.82479 12.4157 8.33968
1 0.526123 10.5746 11.0158
1 1.60985 0.574879 4.62074
1 0.957175 1.43024 10.9127
1 10.6217 1.38386 3.04666
96
 Atoms. Timestep: 14000
2 0.217837 7.5963 5.69475
2 4.42837 11.6003 10.8068
2 8.77384 3.4535 5.66226
2 8.69259 12.2418 12.1627
2 0.948959 4.92807 8.13813
2 8.20545 11.9728 1.44161
2 8.33822 9.41913 5.47452
2 5.58329 11.826 1.79383
2 10.8538 10.1123 5.45117
2 4.07513 9.77659 13.0415
2 3.39298 3.81516 6.99644
2 8.85905 1.61266 13.303
2 2.46422 7.90207 7.72668
2 8.47358 10.3535 0.0996072
2 11.5863 5.77744 6.97395
2 5.62271 0.466849 12.8837
2 10.4289 7.25852 4.93427
2 6.17131 10.2641 12.0856
2 2.24103 6.19692 5.76205
2 6.78856 1.01952 11.2646
2 0.0799414 7.6252 11.7898
2 7.19498 1.19651 1.75436
2 10.7805 9.1632 10.6483
2 6.36472 9.94634 1.82918
2 10.1698 9.16225 8.00979
2 3.83912 9.71878 2.68768
2 2.68756 2.84234 9.73175
2 9.60886 1.22894 2.78514
2 0.978281 8.3864 9.6519
2 8.94845 10.6902 3.08927
2 10.5306 4.4375 9.1695
2 4.3515 1.41057 1.61779
2 3.70573 3.74971 3.82804
2 8.9652 2.45816 10.856
2 8.17755 8.77759 2.53254
2 4.01001 9.78743 9.85928
2 10.3177 5.11336 4.76806
2 4.34599 1.10304 10.2881
2 2.33163 8.9933 5.31141
2 8.71327 9.68282 11.1085
2 12.3695 11.468 0.0919122
2 1.83856 0.555005 6.52082
2 0.786426 2.12077 12.9479
2 10.9412 12.383 4.43474
2 1.24526 -0.016152 0.81697
2 12.7097 12.5136 7.7024
2 12.0578 0.288391 11.2818
2 9.90023 11.8201 6.80653
2 12.4595 1.95197 2.17931
2 10.3578 11.7422 12.5145
2 1.12154 9.99552 2.98184
2 1.84962 12.7444 9.04321
2 2.41088 2.4307 1.64308
2 2.23059 10.3939 7.72524
2 11.9383 11.1888 2.58577
2 10.8159 1.37467 8.74424
2 -0.00453494 10.5595 11.0455
2 0.238878 0.241995 4.1646
2 11.8638 2.9395 10.234
2 2.98961 1.14788 3.73148
2 10.4859 11.034 8.96633
2 10.91 2.84443 4.12361
2 1.81814 1.27927 10.9998
2 3.05803 11.4154 4.39736
1 9.28689 10.1604 6.50958
1 4.68159 10.0793 1.38211
1 2.33881 3.87102 8.29072
1 8.67575 0.86937 1.44643
1 12.324 8.80081 10.8907
1 8.10455 10.3311 1.74059
1 12.0149 5.17608 8.25116
1 5.70615 0.625077 1.32844
1 3.34408 4.77503 5.49265
1 8.20751 1.36064 11.7298
1 8.73855 8.19132 4.26528
1 4.4647 10.1746 11.2918
1 11.5822 6.18159 5.50788
1 5.36215 0.276756 11.1929
1 1.75442 7.40184 6.24251
1 7.72088 10.832 12.0782
1 10.6246 11.0751 3.7254
1 2.34548 8.91432 9.02411
1 3.52843 2.58606 2.95325
1 10.2882 3.09953 9.94259
1 2.71127 9.96213 3.81573
1 9.57213 9.76071 9.55093
1 9.61201 3.85687 4.1474
1 2.79789 1.23899 9.71716
1 1.14935 1.72404 1.21428
1 10.9003 12.3869 8.11557
1 0.546358 11.0437 1.49547
1 1.45518 11.7384 7.42716
1 11.7578 11.6171 11.8825
1 1.97915 0.381179 4.71656
1 0.225102 1.98051 11.265
1 11.5496 1.35218 3.6108
96
 Atoms. Timestep: 16000
2 0.706803 6.75402 6.12406
2 5.01476 11.2869 10.6103
2 0.979631 4.84139 3.93792
2 8.10645 11.3297 11.6485
2 1.14446 5.54917 8.33206
2 8.2256 11.7387 1.01751
2 8.12034 8.90048 6.05561
2 5.53828 11.6797 1.75565
2 9.68397 11.5488 5.44651
2 4.82517 9.72901 12.9238
2 2.88703 4.36777 6.20232
2 8.94993 1.11973 13.0662
2 2.25772 8.54904 7.3688
2 8.65616 9.36489 12.7939
2 11.3573 5.90196 7.34774
2 4.80581 0.520737 12.6611
2 10.3332 8.22844 5.03723
2 6.04342 9.3994 10.6969
2 2.46187 6.37178 4.79964
2 7.37921 0.705726 11.2388
2 12.1442 6.93765 9.39009
2 6.6041 1.49389 1.69276
2 10.7023 8.31256 9.60614
2 6.64988 9.3856 1.34249
2 9.21336 9.63926 7.66036
2 3.99261 9.52652 2.49515
2 3.27979 3.48447 8.75873
2 8.72092 2.59831 1.86784
2 0.995227 8.26659 10.2157
2 9.66293 10.7972 2.82764
2 10.766 4.16889 9.42005
2 4.15652 1.59915 1.70151
2 3.68666 4.01548 3.44708
2 9.79892 2.11611 11.4999
2 8.25682 8.8276 2.85491
2 3.22839 9.21475 10.5015
2 11.2968 5.99583 4.88098
2 4.67383 1.68582 10.4072
2 3.04387 8.75854 4.98143
2 8.86131 9.3354 10.454
2 12.1392 10.2906 0.664963
2 1.76527 11.8113 6.39868
2 1.38805 1.76651 0.346817
2 10.0521 0.801746 3.68253
2 0.552111 0.0587535 1.6945
2 12.1201 12.5088 7.96635
2 0.273285 11.6504 11.8864
2 9.22048 11.6935 7.79243
2 11.3654 2.20687 1.7883
2 10.3508 12.2143 12.3317
2 1.44179 9.78709 2.69745
2 2.80873 0.877909 8.8321
2 2.32152 2.82502 2.43124
2 1.33064 10.576 8.70872
2 11.9391 10.9786 3.54877
2 10.0911 1.6817 9.49034
2 10.9734 9.26047 11.6349
2 0.439164 1.38543 3.78149
2 12.1321 1.63826 10.7993
2 2.92354 1.4518 4.34739
2 10.5132 10.9267 9.39484
2 10.947 2.99149 3.90237
2 2.09039 1.36836 10.9696
2 2.16888 11.3397 4.13114
1 8.59501 10.6444 6.67846
1 5.18603 10.0069 1.33856
1 2.50618 4.76251 7.81417
1 8.15488 1.0691 1.39545
1 11.8585 7.91745 10.7572
1 8.52168 10.0619 1.55644
1 11.9978 5.4202 8.95522
1 5.33178 0.755306 1.19071
1 2.50087 4.9895 4.46964
1 9.02557 0.406261 11.5617
1 8.48168 8.22037 4.6674
1 4.6531 9.81559 11.117
1 11.4204 7.18513 5.85711
1 5.56478 0.378637 10.9058
1 2.3159 7.4751 6.13867
1 7.7286 9.70549 11.3387
1 10.5267 11.4143 4.11929
1 2.18101 9.01505 9.12028
1 3.76054 2.58822 3.23125
1 10.8738 2.82549 10.3465
1 2.64397 9.87227 3.76089
1 10.0056 9.46341 9.04403
1 11.9084 4.56602 4.4433
1 3.15012 2.10529 9.63918
1 0.750354 1.90471 2.07295
1 10.4142 12.4585 8.80188
1 0.223012 10.9336 2.21467
1 1.40169 12.0199 8.19719
1 11.2072 10.8464 12.3097
1 1.29351 0.186386 4.83663
1 0.912584 0.973432 11.9181
1 10.1579 2.31893 2.80565
96
 Atoms. Timestep: 18000
2 0.0534606 7.72399 6.85294
2 4.36707 11.7226 10.9374
2 0.942803 4.01199 5.18953
2 6.88293 11.7655 11.7643
2 0.806112 5.3661 9.64022
2 8.44478 11.4508 0.0459282
2 8.49309 8.33511 5.42554
2 5.1512 12.2263 1.4935
2 8.63473 10.5333 5.35662
2 4.17322 10.7337 13.0903
2 2.25982 4.96224 7.23318
2 8.36328 0.62739 12.0888
2 2.1338 9.13122 7.39006
2 8.28336 8.89285 0.170752
2 11.3774 6.64139 8.45999
2 5.25842 1.25035 12.4662
2 10.0706 6.56994 5.54001
2 5.77164 9.71443 11.8138
2 2.59396 6.71348 5.71039
2 7.1538 0.690232 10.141
2 12.1331 6.95724 10.4063
2 7.27623 1.13869 1.07696
2 10.7528 8.73443 9.93291
2 6.23993 9.93274 0.618664
2 8.65181 9.54281 8.43252
2 4.17696 10.3 2.68435
2 2.98312 3.81875 9.38387
2 9.40048 0.870885 1.81047
2 1.03799 9.12274 9.53693
2 8.751 10.592 2.5027
2 10.901 4.10691 9.79192
2 4.3723 2.6478 1.43948
2 3.09794 3.66394 4.25335
2 9.55634 1.93636 10.1314
2 8.6434 7.61259 2.68062
2 3.27859 9.11829 10.4249
2 0.662576 1.18972 4.66108
2 5.2715 1.70595 10.2256
2 2.21194 9.09846 5.12005
2 8.16675 9.46439 11.1911
2 12.0838 11.1409 0.635152
2 2.37366 0.987553 6.38386
2 1.00416 2.1514 12.8429
2 9.48291 0.258468 3.9031
2 0.545038 0.699776 2.44663
2 0.621658 0.749414 7.64401
2 0.103062 0.128656 11.72
2 10.223 0.0392427 5.95788
2 11.2174 2.15329 1.7934
2 10.3733 12.0702 11.3085
2 1.5884 10.1861 2.79909
2 3.67408 1.33326 8.73532
2 2.14068 1.96278 1.7509
2 2.45804 11.3039 8.44405
2 11.3215 10.8562 3.65938
2 10.6046 1.15895 8.52716
2 11.9428 9.52287 11.6649
2 0.741973 11.6943 3.9181
2 0.0284356 2.53221 10.1955
2 2.93294 1.36731 4.24831
2 9.68753 11.4555 9.55688
2 10.6842 2.05883 4.5251
2 2.43915 1.88027 10.4745
2 2.42249 11.169 5.06386
1 8.49418 9.38502 6.55082
1 4.94434 10.532 1.25469
1 1.95149 4.8364 8.61508
1 8.72331 0.439414 0.44026
1 12.3067 8.50358 10.4484
1 8.26516 9.13611 1.98832
1 11.6562 5.68609 9.72438
1 5.6425 1.22186 1.03162
1 2.60527 4.8524 5.35993
1 8.98211 0.391437 10.4444
1 8.7982 6.91494 4.32391
1 3.99752 9.85773 11.653
1 11.045 7.13982 6.80993
1 5.65424 0.29952 11.0664
1 1.56121 8.02501 6.16566
1 7.31661 10.116 12.2637
1 9.53 11.1865 3.79487
1 2.43584 9.45521 8.91316
1 3.06506 2.61772 2.95521
1 11.12 2.50146 9.54718
1 2.98863 10.0565 3.79191
1 9.35402 9.63011 9.87125
1 12.1754 2.37197 5.32571
1 3.82183 2.41523 9.93563
1 0.476817 1.93945 1.24451
1 11.5726 0.703169 6.93608
1 0.299597 11.2515 2.34475
1 2.35167 0.677938 7.86081
1 11.7037 11.2827 12.1145
1 1.86007 0.271641 4.98523
1 1.16346 1.5536 11.3067
1 10.3499 1.69132 3.00846
96
 Atoms. Timestep: 20000
2 0.931904 7.59089 7.17984
2 5.21841 11.9543 9.57181
2 0.669867 3.99644 5.05999
2 7.64815 11.0809 11.0262
2 0.772495 5.04603 9.74635
2 8.30563 12.0537 2.64544
2 9.77642 9.55361 4.45347
2 4.88025 11.7659 0.564732
2 9.17728 11.3805 5.05444
2 3.9256 10.6447 11.5522
2 2.12901 4.48757 7.29174
2 8.84669 0.356835 13.275
2 3.12677 9.00366 6.65595
2 8.03099 8.85089 12.5604
2 11.6133 5.4111 7.57016
2 7.2518 2.45547 0.937846
2 10.8894 6.85023 5.22012
2 5.58366 9.48442 10.586
2 1.85627 6.3998 5.10756
2 7.14209 0.633759 10.72
2 11.4283 7.01839 9.7305
2 6.23492 0.559162 2.41964
2 10.9055 9.19879 9.17942
2 6.01757 9.40599 12.9923
2 9.52981 9.88502 7.72107
2 3.41748 9.50045 1.0004
2 2.50997 3.24539 9.49795
2 8.47867 2.20226 2.63923
2 0.958362 8.95867 9.52717
2 9.11942 10.1834 2.01669
2 10.4885 4.54295 9.99835
2 4.70117 1.70639 2.98269
2 3.36879 4.0717 4.52082
2 9.41352 1.8906 10.969
2 9.83139 8.16606 2.28958
2 3.18924 9.8761 9.18288
2 1.02045 2.15877 5.80708
2 4.33582 1.60858 11.1867
2 3.38904 8.79377 4.08834
2 8.56804 9.49345 9.78973
2 10.5127 9.80831 0.524419
2 1.94974 0.820512 7.02129
2 1.11824 1.92163 0.517687
2 10.2472 0.10582 2.77498
2 0.337314 0.423666 3.02298
2 12.5275 12.4346 8.4245
2 12.2364 12.3141 12.5789
2 10.9257 2.07011 6.92624
2 11.5779 1.95121 2.07757
2 9.64523 11.2172 12.1531
2 1.19744 9.94725 2.85627
2 2.24544 0.698942 9.44464
2 1.71906 2.73197 2.89187
2 1.86859 10.6801 7.836
2 11.4251 10.6443 3.80087
2 11.3205 1.78891 9.8652
2 11.9412 9.73656 11.186
2 1.68089 12.1215 4.40554
2 11.6094 2.40894 11.9064
2 2.68602 1.63436 4.25319
2 9.47591 11.6977 10.1557
2 10.8821 2.17468 4.6232
2 1.51175 2.12507 11.575
2 3.45179 11.3466 2.71305
1 8.87581 10.2254 6.1118
1 4.55977 10.281 12.9723
1 2.07878 4.78926 8.8053
1 7.75866 1.02412 1.59067
1 12.0736 8.486 10.0325
1 9.12761 8.88596 0.814657
1 11.4915 5.51078 9.16878
1 4.58886 12.7291 2.0099
1 2.29068 4.73313 5.43471
1 8.69731 -0.149204 11.3787
1 10.1874 7.93019 4.06085
1 4.30008 10.4767 10.051
1 12.2083 6.58364 6.2853
1 5.76077 0.900471 10.2549
1 2.5673 8.25668 5.3556
1 7.34919 9.47922 10.7633
1 9.72134 11.0577 3.19554
1 2.05278 8.89101 8.22462
1 3.55453 2.82088 3.52634
1 10.578 3.12537 10.669
1 3.08139 9.62154 2.68927
1 9.65187 10.2399 9.22066
1 12.0689 2.77312 5.61629
1 2.74481 1.86588 10.6142
1 0.829392 1.7424 2.20963
1 11.1335 0.947275 8.33686
1 0.544597 11.2908 3.51593
1 1.7595 12.1942 8.06987
1 11.4229 10.8008 12.2486
1 1.80919 1.05746 5.26186
1 0.225011 1.45197 12.3091
1 10.1045 2.0447 3.00151
96
 Atoms. Timestep: 22000
2 0.172532 6.36355 5.54603
2 5.2104 11.6605 9.80053
2 11.2967 4.17291 6.64529
2 7.84376 11.9147 12.1779
2 0.52698 4.58822 9.43911
2 10.0394 11.6038 5.02989
2 9.71167 8.75229 5.15619
2 4.51646 11.4226 1.38784
2 8.70746 -0.0433177 2.82132
2 4.12847 10.1358 12.3655
2 2.81449 4.66373 7.06325
2 7.53588 1.145 0.460975
2 2.14501 8.11333 7.23374
2 8.62651 9.24271 13.357
2 10.9071 5.72221 8.09055
2 6.58931 2.01566 2.59345
2 9.75326 6.40386 5.46612
2 6.37739 9.9416 11.0419
2 2.77391 6.57028 5.08794
2 6.63818 1.37401 10.2904
2 12.145 6.73054 10.537
2 6.161 -0.132799 2.92118
2 10.7787 8.89371 9.92645
2 6.67526 10.3164 0.0391097
2 9.19136 9.93726 7.50938
2 4.28072 9.34586 1.91057
2 2.68187 3.48542 9.30441
2 8.85654 2.08294 2.47811
2 0.985574 9.09302 9.19338
2 9.28455 10.4613 2.72935
2 10.4943 4.50656 10.6318
2 3.93759 0.621326 3.49856
2 3.90913 3.65965 4.49803
2 8.62164 2.38199 10.7023
2 9.70417 8.33021 2.46954
2 4.22085 9.86875 9.1095
2 12.134 2.42915 5.05915
2 4.88431 1.85523 9.31764
2 1.67709 8.78863 4.28612
2 9.07658 10.6916 10.4052
2 11.2308 10.2845 0.787931
2 1.10598 0.209879 6.18085
2 1.5839 1.45171 -0.219985
2 10.6042 0.886971 2.45076
2 1.22789 0.272081 1.78811
2 12.3403 -0.309307 8.18824
2 0.308765 11.8744 11.792
2 10.5267 1.5133 6.92886
2 12.0337 2.66474 1.76901
2 10.6393 10.6535 11.8724
2 1.42616 10.5958 3.16173
2 2.87495 1.171 8.14081
2 2.40623 2.53872 2.04528
2 1.59472 10.9153 7.94315
2 11.398 11.3406 2.67472
2 10.9418 2.04938 9.19635
2 0.252995 9.10308 11.6578
2 0.266197 12.4241 3.8995
2 11.8686 1.96305 11.4644
2 2.00408 1.91656 3.93799
2 10.1043 11.5155 8.49347
2 10.0439 2.84718 4.33015
2 1.68671 1.16679 10.2833
2 3.70852 10.7715 3.69094
1 9.88918 10.2017 6.0473
1 4.82189 9.8345 0.565976
1 1.84837 4.3256 8.38504
1 7.53686 0.898854 2.24969
1 12.5965 8.35306 10.2722
1 9.76072 9.51161 1.40083
1 11.6968 5.37542 9.72184
1 4.468 12.0411 2.88143
1 3.1053 5.09945 5.39415
1 7.41123 1.29194 11.5819
1 9.49795 7.56734 4.03151
1 4.83936 10.342 10.6874
1 11.0684 5.87761 6.59074
1 5.95117 0.457535 9.16284
1 1.53949 7.53214 5.71374
1 7.98055 10.2324 11.8334
1 10.1619 11.7863 3.27341
1 2.52862 9.50987 8.40052
1 3.47035 2.34739 3.48654
1 10.4545 2.9147 10.5379
1 2.88989 9.63852 2.98465
1 9.74919 10.0133 9.2242
1 10.7576 2.72124 5.92264
1 3.22505 2.06514 9.60855
1 1.09914 1.90735 1.38101
1 11.0016 0.632949 8.35466
1 0.498569 11.7159 2.49703
1 1.62092 12.6586 7.73014
1 12.1266 10.46 12.4518
1 0.675183 1.10052 4.75581
1 0.830309 1.16892 11.7303
1 10.4474 2.6312 2.6251