96
 Atoms. Timestep: 0
2 0 7.95642 4.74695
2 4.63304 0 11.358
2 0 4.63304 4.74695
2 7.95642 0 11.358
2 0 4.63304 8.47514
2 7.95642 0 1.8641
2 0 7.95642 8.47514
2 4.63304 0 1.8641
2 10.7421 8.43088 6.61105
2 4.15858 10.7421 0
2 1.84736 4.15858 6.61105
2 8.43088 1.84736 0
2 1.84736 8.43088 6.61105
2 8.43088 10.7421 0
2 10.7421 4.15858 6.61105
2 4.15858 1.84736 0
2 10.5201 6.29473 5.04003
2 6.29473 10.5201 11.6511
2 2.06934 6.29473 5.04003
2 6.29473 2.06934 11.6511
2 2.06934 6.29473 8.18207
2 6.29473 2.06934 1.57102
2 10.5201 6.29473 8.18207
2 6.29473 10.5201 1.57102
2 10.1594 8.65935 9.20274
2 3.93011 10.1594 2.59169
2 2.43004 3.93011 9.20274
2 8.65935 2.43004 2.59169
2 2.43004 8.65935 9.20274
2 8.65935 10.1594 2.59169
2 10.1594 3.93011 9.20274
2 3.93011 2.43004 2.59169
2 2.43004 3.93011 4.01936
2 8.65935 2.43004 10.6304
2 10.1594 8.65935 4.01936
2 3.93011 10.1594 10.6304
2 10.1594 3.93011 4.01936
2 3.93011 2.43004 10.6304
2 2.43004 8.65935 4.01936
2 8.65935 10.1594 10.6304
2 0 10.703 0
2 1.88643 0 6.61105
2 0 1.88643 0
2 10.703 0 6.61105
2 0 0 1.872
2 0 0 8.48305
2 0 0 11.3501
2 0 0 4.73905
2 11.2706 2.31295 2.18973
2 10.2765 11.2706 8.80078
2 1.31887 10.2765 2.18973
2 2.31295 1.31887 8.80078
2 1.31887 2.31295 2.18973
2 2.31295 11.2706 8.80078
2 11.2706 10.2765 2.18973
2 10.2765 1.31887 8.80078
2 1.31887 10.2765 11.0324
2 2.31295 1.31887 4.42131
2 11.2706 2.31295 11.0324
2 10.2765 11.2706 4.42131
2 11.2706 10.2765 11.0324
2 10.2765 1.31887 4.42131
2 1.31887 2.31295 11.0324
2 2.31295 11.2706 4.42131
1 11.0086 7.83654 8.10972
1 4.75292 11.0086 1.49867
1 1.5809 4.75292 8.10972
1 7.83654 1.5809 1.49867
1 1.5809 7.83654 8.10972
1 7.83654 11.0086 1.49867
1 11.0086 4.75292 8.10972
1 4.75292 1.5809 1.49867
1 1.5809 4.75292 5.11238
1 7.83654 1.5809 11.7234
1 11.0086 7.83654 5.11238
1 4.75292 11.0086 11.7234
1 11.0086 4.75292 5.11238
1 4.75292 1.5809 11.7234
1 1.5809 7.83654 5.11238
1 7.83654 11.0086 11.7234
1 10.1088 10.1088 3.30552
1 2.48067 10.1088 9.91657
1 2.48067 2.48067 3.30552
1 10.1088 2.48067 9.91657
1 2.48067 10.1088 3.30552
1 10.1088 10.1088 9.91657
1 10.1088 2.48067 3.30552
1 2.48067 2.48067 9.91657
1 0 1.60471 1.57853
1 10.9848 0 8.18958
1 0 10.9848 1.57853
1 1.60471 0 8.18958
1 0 10.9848 11.6436
1 1.60471 0 5.03252
1 0 1.60471 11.6436
1 10.9848 0 5.03252
96
 Atoms. Timestep: 2000
2 0.255397 7.46641 4.1978
2 4.65934 13.0993 10.8911
2 0.302378 4.71694 4.98244
2 8.13566 12.7427 11.3195
2 0.149322 4.54316 8.2303
2 7.82158 0.090141 1.18859
2 0.229474 8.1952 8.81891
2 4.30663 12.5697 1.45488
2 12.4252 8.52105 5.92225
2 3.96007 10.8127 13.0622
2 2.13161 3.67742 6.97244
2 7.58642 2.01971 -0.137356
2 1.92834 8.30948 6.59864
2 8.52193 10.7035 -0.29123
2 11.54 4.68244 6.45705
2 4.38164 1.49515 13.3298
2 11.0292 6.40155 4.76078
2 6.0696 10.7012 11.4018
2 2.19477 5.94171 4.64353
2 6.42734 0.700234 11.6929
2 2.08563 6.53247 8.42602
2 6.06209 1.80078 2.18489
2 11.6304 6.68117 8.41906
2 6.13439 10.7797 0.652513
2 11.0215 9.37278 8.94562
2 3.44704 10.2324 2.12669
2 1.9723 4.25382 9.8443
2 8.73402 1.68203 3.29608
2 2.47556 9.56579 9.40121
2 8.7615 10.016 1.95682
2 11.0598 4.02789 9.48756
2 3.62721 2.04607 2.4171
2 1.8166 2.88257 4.29169
2 8.8073 2.46825 11.2596
2 10.345 8.8671 3.75485
2 2.97105 11.2689 11.3567
2 11.2121 3.32172 4.98987
2 3.60957 2.38161 10.9228
2 2.25494 8.39916 3.51705
2 8.60349 10.5503 10.0307
2 11.9545 10.6691 13.5941
2 1.66917 12.3246 6.74157
2 0.12377 1.708 -0.139852
2 11.1758 0.218419 6.77661
2 12.2746 -0.188241 1.58468
2 12.7191 0.352243 8.60607
2 -0.0838539 12.2634 11.9103
2 12.4884 12.1333 5.22729
2 11.3354 2.18616 2.57974
2 10.8398 11.7067 8.42559
2 0.479141 9.87545 1.50486
2 1.73759 1.4042 8.78236
2 0.901622 1.54838 2.40274
2 2.29259 12.3717 9.28282
2 11.1999 10.5088 1.91933
2 10.3828 1.84124 9.1385
2 0.708991 10.966 10.4986
2 2.18303 0.175152 4.38364
2 11.4855 2.11652 11.4298
2 9.99862 11.492 4.37424
2 11.2224 10.2168 11.0438
2 10.8785 1.02737 4.42383
2 0.556452 2.60814 11.404
2 1.32317 10.0928 4.98891
1 11.9459 8.17216 8.06222
1 4.42985 11.1026 0.922035
1 1.78049 4.97447 8.31012
1 7.5142 1.71518 1.77885
1 1.90185 8.27652 8.45358
1 7.71285 11.4009 1.10657
1 11.3949 5.08219 8.1091
1 4.42521 1.21258 1.11427
1 2.09043 4.21785 5.141
1 8.0579 1.19727 12.0595
1 11.6592 7.9994 4.48078
1 4.4701 11.5651 11.7312
1 11.7462 4.82407 4.9474
1 4.99235 1.40089 11.9447
1 1.98049 7.63218 5.03572
1 7.58213 11.3146 10.9406
1 10.0221 10.3584 3.00665
1 2.21122 10.8187 10.0683
1 2.3167 1.78716 3.38722
1 10.0476 3.11653 10.5992
1 1.96059 9.53863 2.1724
1 10.1122 10.5784 9.69629
1 10.1967 2.41242 4.09108
1 2.06185 2.47729 10.1407
1 12.4376 1.56562 1.60516
1 11.0998 0.458609 8.45454
1 12.375 11.2369 1.25826
1 1.33552 -0.0233003 8.28253
1 12.6187 10.6726 11.7224
1 0.987832 11.78 5.19483
1 -0.348555 1.03318 12.1434
1 10.9608 12.5556 5.27738
96
 Atoms. Timestep: 4000
2 12.5197 7.75401 4.55391
2 4.98512 -0.0325199 10.5644
2 -0.0265869 4.18052 4.37894
2 8.02367 11.8219 11.6453
2 12.6151 4.82873 7.92249
2 8.22418 12.4127 1.22251
2 12.6294 8.14368 7.64902
2 4.79814 -0.0340487 2.02243
2 10.6956 8.29024 6.23673
2 4.1743 11.3473 0.932172
2 1.9923 5.07907 6.49652
2 9.01789 1.22746 13.4797
2 1.86036 8.01673 6.07601
2 8.12773 9.80497 0.118487
2 11.4555 5.28442 6.26811
2 4.96313 1.64211 13.1221
2 10.3814 6.02117 4.27406
2 5.92032 10.414 11.7566
2 1.84417 6.47932 4.66335
2 6.97693 1.2717 11.7575
2 1.48694 6.70977 8.5159
2 6.5854 1.80537 1.51478
2 10.293 6.33973 8.19127
2 6.82129 10.7616 2.01815
2 10.9267 9.17707 9.18263
2 4.03305 11.0942 3.55507
2 2.08512 3.94921 9.21071
2 8.71038 2.00861 2.7577
2 1.68701 9.16524 8.99546
2 9.57724 10.311 2.35903
2 10.1812 3.5799 8.84121
2 3.91211 2.36243 1.81154
2 2.34452 3.52715 3.72799
2 8.86518 1.53218 11.0231
2 10.1836 8.7507 3.74878
2 3.04688 11.2723 10.7708
2 10.3461 3.52294 4.28376
2 3.74679 1.83211 10.6124
2 1.82257 9.62803 4.407
2 8.7159 9.85319 10.9272
2 0.189544 10.8841 0.000763347
2 1.94808 1.12123 7.0994
2 12.0047 1.61805 0.275149
2 11.0021 12.3472 6.49026
2 0.420738 -0.270419 1.9081
2 12.6871 0.345946 8.40104
2 12.4542 12.6271 12.176
2 12.7762 12.2382 4.91443
2 11.8629 1.63413 2.81423
2 10.8543 11.6145 9.54784
2 1.43963 10.6337 2.33408
2 1.6888 1.56387 9.49924
2 0.904043 2.4548 2.16742
2 0.944401 11.54 8.68971
2 12.1677 10.956 2.01648
2 10.0821 1.13504 8.63951
2 0.945225 10.4156 11.371
2 1.87136 1.2593 3.80656
2 11.2553 1.69699 10.9173
2 10.9507 10.9566 4.38027
2 11.2759 10.2273 11.5209
2 10.2618 0.748939 4.3872
2 0.461424 2.64839 11.4851
2 2.27911 12.0808 4.84018
1 10.7331 7.91433 7.82617
1 5.208 11.4853 2.36359
1 1.1776 5.1355 8.14624
1 8.01263 1.18358 1.36682
1 1.17725 8.00446 7.41619
1 8.40141 10.7152 1.34055
1 10.8527 4.69313 7.74311
1 5.18356 1.27305 0.991078
1 1.55158 4.6481 4.89065
1 8.64935 0.349768 12.2109
1 10.7974 7.53847 4.80993
1 4.47132 11.7519 11.9663
1 11.4286 4.76684 4.75323
1 5.36458 1.56283 11.177
1 1.27852 7.93837 4.4157
1 7.62634 10.202 12.0536
1 10.8767 9.9505 3.07242
1 1.7639 10.5727 9.98132
1 2.46747 2.63438 2.5941
1 10.1648 2.23147 10.0277
1 2.33176 10.8978 3.58948
1 10.3065 10.3061 10.065
1 10.1567 2.08676 3.28649
1 1.9527 2.67176 10.4728
1 -0.255383 1.26113 1.47195
1 11.0984 12.7912 8.33901
1 0.539864 11.4433 1.4152
1 1.16264 0.169852 8.2479
1 12.5232 10.8555 12.3238
1 0.839436 0.166977 4.84975
1 12.3669 1.50974 12.3112
1 11.1202 12.292 4.92548
96
 Atoms. Timestep: 6000
2 0.387619 6.99251 4.36014
2 3.35228 12.0105 11.4103
2 0.0880863 4.84457 4.61536
2 7.86674 0.833954 12.6828
2 12.8573 4.47402 8.42955
2 8.12673 12.9347 2.61041
2 12.1881 8.40769 7.59817
2 5.24522 12.5744 1.17882
2 9.84421 9.05878 6.39067
2 4.53928 10.345 13.1629
2 0.767443 4.32756 6.61224
2 8.65168 1.67593 1.02799
2 0.571662 8.08213 6.03357
2 8.34989 11.5693 0.649395
2 10.933 4.74852 6.35583
2 3.92085 1.31939 13.37
2 10.701 6.1363 4.25069
2 6.46536 11.6912 11.6483
2 2.29885 5.78285 5.07108
2 8.66812 3.80963 12.7481
2 1.69497 6.4745 8.08924
2 6.18621 2.04516 1.78655
2 10.8391 6.55175 7.95449
2 6.04903 10.8092 2.13507
2 9.64168 9.20654 9.52695
2 3.16778 10.3233 2.15905
2 1.98545 3.66626 8.8519
2 8.80414 2.31736 3.17867
2 2.07331 9.07593 9.11309
2 8.76374 10.0782 2.48926
2 10.3017 3.75085 8.66139
2 3.67099 1.84287 1.9646
2 2.36328 2.99539 4.63069
2 9.36386 2.01541 11.4248
2 11.2383 8.59145 3.08113
2 3.84561 10.145 10.6311
2 11.6051 3.33306 4.07993
2 3.12382 1.49178 10.6185
2 2.64251 8.38634 3.82309
2 9.05304 11.2462 11.7326
2 12.249 10.7717 -0.0404168
2 1.96656 11.934 5.98006
2 12.4955 1.45158 13.5426
2 11.3585 0.0549701 6.57872
2 0.0740474 -0.0655336 1.81555
2 12.645 12.7797 8.09448
2 12.4842 -0.065801 11.6391
2 0.177124 -0.404159 4.31958
2 11.7968 1.72152 2.22587
2 10.7707 11.9038 9.20446
2 0.497605 10.1924 2.00524
2 1.94793 1.18534 8.42276
2 1.44497 1.8453 2.41649
2 1.72748 11.7878 8.97803
2 11.4355 11.0693 2.74555
2 10.1905 1.6116 8.79717
2 1.11022 10.487 11.2461
2 2.78477 0.367088 4.06619
2 11.6244 2.84652 11.3966
2 10.2626 9.76431 4.88162
2 11.5166 10.9226 11.3312
2 10.5078 0.946698 4.47476
2 0.8075 1.77499 11.075
2 1.80084 10.8963 3.52537
1 10.4913 8.26832 8.17344
1 4.50768 10.9323 1.3907
1 1.51202 4.80216 7.88626
1 7.53312 1.49773 2.41338
1 1.11045 8.28129 7.8527
1 7.70776 11.1001 2.18697
1 11.1263 4.87495 7.96372
1 4.9467 1.17365 0.962819
1 1.5589 4.51886 4.91866
1 8.47578 2.28468 13.1321
1 11.8829 7.2395 3.72735
1 4.76254 11.0441 11.5231
1 11.3151 4.64359 4.75002
1 3.06086 0.608325 11.8269
1 1.93026 7.51855 5.01811
1 7.88146 12.1039 12.4555
1 10.4122 10.0562 3.37139
1 2.22315 10.4389 9.98956
1 2.75501 1.7454 3.47365
1 10.2445 2.62547 9.92156
1 1.80797 9.58095 2.66297
1 10.1217 10.889 10.2847
1 10.7973 2.14025 3.30539
1 2.066 2.36357 9.77478
1 0.359962 1.84695 1.0973
1 11.1139 0.309878 8.15174
1 12.6589 11.4457 1.50239
1 1.24297 12.6085 7.69383
1 12.7964 11.3434 11.6598
1 1.78156 12.1988 4.43917
1 12.5709 1.70555 11.9939
1 11.597 12.846 5.05072
96
 Atoms. Timestep: 8000
2 12.3671 7.79938 4.87038
2 3.91775 0.185589 11.482
2 -0.121606 4.51729 4.51355
2 8.23199 0.324563 12.1824
2 12.5359 4.40657 7.95521
2 8.31263 12.5402 1.76585
2 12.3971 8.35415 8.91984
2 4.34435 -0.0527486 1.33061
2 10.8527 8.97025 6.50939
2 4.31743 11.0004 -0.0943262
2 1.39598 4.44911 6.13619
2 8.6324 2.31629 -0.115225
2 0.710016 7.98074 6.8052
2 8.5702 10.5542 0.525286
2 10.7838 4.4464 6.56846
2 4.45919 2.08 13.1262
2 10.3858 6.34877 4.63698
2 6.2522 10.9199 11.8236
2 1.00154 6.10728 4.11363
2 6.40947 1.79833 11.1701
2 0.534745 6.19779 7.99468
2 6.47614 1.75151 0.708306
2 11.0358 7.05989 7.78698
2 6.69005 10.5883 1.63669
2 11.1719 9.97282 9.47739
2 4.13404 9.88025 2.28236
2 1.46676 3.40475 8.47304
2 9.0221 2.0984 2.48153
2 2.45631 8.92243 8.93726
2 8.88891 10.6479 3.65152
2 10.7805 4.32351 9.54299
2 3.68779 2.39037 2.17411
2 2.30516 3.12769 4.06018
2 8.71458 2.92702 10.6949
2 9.40507 8.19893 4.3779
2 3.68512 10.7444 10.5838
2 11.0229 3.81037 3.25624
2 3.43373 2.75973 10.5735
2 1.8572 8.3021 3.50627
2 9.02631 11.2748 10.8717
2 0.0984125 10.1157 0.0543574
2 3.72606 12.7194 6.25453
2 0.00348722 0.528607 13.1318
2 10.4023 0.816249 6.54976
2 12.39 11.622 2.03127
2 11.2979 0.121923 10.5848
2 0.109555 12.2751 11.5678
2 0.533893 0.502111 5.31143
2 11.6215 1.11762 2.07053
2 10.0504 12.3272 8.93706
2 0.898448 9.63098 2.1215
2 2.79626 1.20361 8.17328
2 0.929205 1.48937 2.18483
2 2.20496 11.5323 8.08975
2 10.3411 10.263 1.86121
2 10.3215 2.27201 8.9381
2 1.32023 10.0049 11.3704
2 3.06281 0.916936 3.93141
2 11.9367 2.76929 11.1099
2 9.59023 9.52783 6.05251
2 11.4205 10.51 11.7082
2 11.1398 0.812502 4.06221
2 1.02054 1.40932 10.1409
2 2.37641 11.4043 3.79618
1 11.1697 8.82851 8.31674
1 5.12649 11.2413 1.39792
1 1.1772 4.69892 7.76185
1 7.92601 1.33758 1.19915
1 1.05213 7.81236 8.43057
1 8.4528 10.8716 2.03373
1 11.1426 5.35863 8.2919
1 4.8719 1.51635 1.17916
1 1.66658 4.46206 4.58926
1 7.84967 1.84296 11.839
1 10.9732 7.59213 5.21008
1 4.54861 11.5073 11.9301
1 11.0314 4.82464 4.64425
1 4.39706 1.55948 11.5359
1 0.992219 7.57477 4.94818
1 8.05124 11.3431 12.2356
1 8.55206 9.54406 4.7527
1 2.33015 10.2886 9.73613
1 2.3148 2.0815 3.01287
1 10.2956 3.1693 10.4195
1 2.62556 9.84051 2.96717
1 10.7047 11.3847 10.4763
1 10.5092 1.99129 3.03514
1 2.39345 2.41043 9.35615
1 -0.00497861 0.389521 1.70492
1 9.95056 0.899038 8.15079
1 12.2229 9.92523 1.67623
1 3.39103 12.6763 7.78777
1 0.0353441 10.6525 12.2196
1 2.39012 -0.159894 4.97096
1 12.4919 0.955072 11.2783
1 11.7796 0.41693 5.71233
96
 Atoms. Timestep: 10000
2 -0.0215435 8.22837 5.49156
2 4.67349 11.9981 11.4096
2 0.575873 4.87083 5.79952
2 7.38661 12.6727 11.1669
2 12.082 4.66765 9.4745
2 8.99897 12.2215 0.983864
2 12.3164 7.80627 8.25424
2 5.30055 0.405377 2.23834
2 10.2209 8.62627 7.20695
2 4.67054 10.7418 -0.226915
2 1.84384 4.16595 7.20181
2 8.31733 1.57898 13.0285
2 2.3406 8.3031 6.48337
2 8.15775 10.3046 12.1167
2 10.7696 5.06164 7.36073
2 4.02084 0.0421944 0.290512
2 11.176 6.22871 5.43581
2 6.21802 9.61066 11.2748
2 2.02582 6.37861 4.755
2 5.6896 1.57156 12.1277
2 1.26344 6.40217 8.21673
2 7.19154 1.51001 2.1671
2 10.0004 7.16856 9.18849
2 6.37813 10.9956 1.43791
2 11.1751 9.95076 9.37528
2 4.15058 10.4753 2.06469
2 2.2094 4.23481 9.86782
2 9.64448 2.54887 2.15039
2 2.0981 9.43337 8.22783
2 9.04102 9.77083 1.41756
2 9.08335 4.4336 9.45195
2 4.17809 2.83388 2.28387
2 2.62693 3.74115 4.74261
2 7.72441 2.14832 10.6059
2 10.7428 8.32566 3.87409
2 3.60639 10.4923 10.4399
2 11.4333 3.16424 4.88853
2 2.71306 1.47283 11.4309
2 2.91423 8.72817 4.10334
2 8.92974 11.2071 10.3271
2 0.0130553 10.1114 0.0295147
2 2.27794 0.290253 6.6994
2 12.1775 1.39644 12.7903
2 11.0797 -0.0508737 6.29425
2 0.20783 0.2334 1.92434
2 11.6631 12.705 10.1133
2 0.123247 2.40617 10.5411
2 0.89074 11.9544 4.40594
2 11.9823 2.33003 1.96577
2 10.2341 11.8531 8.23405
2 1.28599 10.3209 2.83452
2 12.4272 1.34863 7.67776
2 1.74778 2.67144 1.78136
2 1.04992 11.9552 9.12118
2 11.351 10.6116 1.73022
2 9.66116 2.21922 8.17557
2 1.14657 10.1733 10.9452
2 2.30834 1.37689 4.0358
2 10.2867 1.54962 0.246733
2 10.1898 7.99738 1.73624
2 10.7274 10.8273 11.5662
2 11.1125 9.8405 5.51068
2 1.71575 1.3639 9.35644
2 3.22098 11.3608 4.24481
1 10.9983 8.56535 8.6275
1 4.76925 11.8288 1.27222
1 1.31464 4.85233 8.63082
1 8.62342 1.5495 1.37085
1 1.49784 8.1339 7.91537
1 8.03259 10.8748 0.731248
1 10.2842 5.28326 8.87899
1 5.65464 1.79962 2.21951
1 2.15491 4.79417 5.68288
1 7.33383 1.38322 12.0265
1 10.8482 8.02091 5.87599
1 4.59292 10.0238 11.5678
1 11.5253 4.57793 6.06543
1 4.06493 0.831062 12.0461
1 1.82108 7.83161 5.00784
1 7.52202 10.722 10.7757
1 10.2107 9.41503 2.64622
1 2.1256 10.6515 9.54933
1 2.62059 2.80109 3.07398
1 8.66396 2.88427 9.28169
1 2.88573 10.1277 3.16401
1 10.4777 11.29 9.78596
1 11.0891 2.61002 3.39113
1 1.70675 2.79314 10.4746
1 0.40443 1.70754 1.01287
1 10.622 0.784308 7.50627
1 0.29205 11.1059 1.78628
1 1.27754 0.923846 8.03002
1 12.3239 10.1327 11.6977
1 2.14179 12.5662 4.95357
1 11.8083 1.37212 11.1296
1 11.8085 11.5401 5.23435
96
 Atoms. Timestep: 12000
2 0.987363 8.41313 4.05853
2 4.70934 11.3192 11.4042
2 0.290083 4.5009 5.32246
2 6.57899 0.483963 11.5515
2 12.4767 4.59861 8.20383
2 8.66939 1.08174 2.31248
2 12.2325 7.78105 7.33651
2 6.00054 0.368162 2.81481
2 11.4046 8.53742 5.34299
2 5.27896 8.24846 10.39
2 2.16801 4.22429 7.18005
2 7.85744 2.70816 0.23555
2 2.18429 7.97207 6.65135
2 7.86631 12.2126 13.4151
2 10.5789 5.06672 6.43865
2 4.9403 12.3242 0.282559
2 11.8571 6.34987 4.24773
2 6.96459 10.3513 11.1983
2 2.17733 6.15981 5.04739
2 5.29435 2.13494 12.5116
2 1.26474 5.95009 8.98096
2 7.00937 2.58322 2.22354
2 10.5854 6.95221 8.14304
2 7.32551 11.2949 1.87646
2 9.05868 8.54838 7.28024
2 4.53803 10.9987 2.66485
2 1.77624 2.87158 9.3792
2 9.58799 2.92898 2.79799
2 1.91048 8.31794 9.24291
2 9.4795 10.3818 1.19475
2 9.89586 3.99882 9.08668
2 3.83054 2.24437 3.12404
2 1.8483 3.40255 4.59654
2 7.76037 2.49396 10.7421
2 10.9109 8.80346 2.88351
2 3.53225 9.65498 10.5843
2 11.1991 3.68146 4.35988
2 3.1062 1.05802 11.3402
2 3.41938 9.52984 4.85343
2 9.07034 11.3718 11.6836
2 0.66762 10.9749 0.218942
2 0.614878 12.5182 6.80265
2 12.388 1.29815 0.305246
2 9.60059 12.7165 6.04494
2 0.772599 -0.182509 1.90485
2 10.6717 0.933114 11.229
2 12.3958 2.21205 11.514
2 11.7427 12.263 4.81544
2 12.415 1.9274 2.80469
2 9.88883 12.2721 9.54168
2 2.16868 10.5471 2.46413
2 11.7045 0.131556 8.07878
2 1.5594 1.99681 2.09253
2 1.77849 10.9609 9.06575
2 11.9586 10.6555 1.85897
2 10.0124 1.56062 8.82189
2 0.543529 9.71577 11.1287
2 1.60315 0.905468 4.58467
2 9.71325 2.1708 0.173482
2 11.2099 9.36484 13.0499
2 12.0743 11.2919 11.6463
2 9.76183 12.1869 2.79107
2 0.52288 1.05066 9.19395
2 2.77575 11.8159 4.76162
1 10.674 8.06097 6.94621
1 5.73095 11.7168 1.80004
1 1.21172 4.22081 8.7502
1 8.5906 2.48236 1.66078
1 1.12226 7.26875 7.94612
1 8.98292 12.1537 1.23675
1 10.8667 5.03415 8.24498
1 5.50418 1.92026 2.39095
1 1.95259 4.716 5.24754
1 7.15241 2.18046 12.0559
1 11.947 8.15145 3.84003
1 5.47562 9.69485 11.2112
1 11.5392 5.20283 5.13681
1 4.68659 0.336901 12.1278
1 2.19379 7.97003 5.08486
1 7.50004 11.6562 11.8304
1 10.899 9.58229 1.34669
1 1.84899 9.81371 10.1395
1 2.33329 2.38053 3.35817
1 9.25784 2.67939 9.67727
1 3.32393 10.7155 3.75587
1 10.6539 11.8836 11.0349
1 11.2063 3.12067 2.88793
1 1.3068 1.61639 10.4224
1 0.312928 1.19162 1.62128
1 10.0314 0.112212 7.82964
1 0.758201 11.1656 1.95025
1 0.578668 12.0888 8.38323
1 0.160275 10.0925 12.4644
1 0.973275 12.1939 5.07841
1 11.034 1.84554 12.5013
1 10.1204 12.3084 4.64109
96
 Atoms. Timestep: 14000
2 11.5657 8.79735 2.42864
2 3.82348 0.323016 12.689
2 1.44792 4.35294 4.48174
2 6.45082 0.800358 12.1932
2 11.6111 4.70044 7.53812
2 8.68551 -0.244124 0.838836
2 11.1533 8.61709 7.96349
2 5.84393 12.4205 3.36517
2 10.2871 7.96015 4.86332
2 5.02524 11.2744 0.462574
2 1.87187 4.52241 7.31299
2 8.20563 2.89755 12.7594
2 0.519964 7.7157 6.67972
2 7.7204 10.8562 13.0536
2 11.3775 4.12086 5.6291
2 4.60306 3.09402 0.277312
2 11.9402 5.91048 3.90965
2 5.34139 11.0097 11.2789
2 2.81558 6.38951 5.90159
2 5.3382 2.40818 11.3299
2 0.48283 6.28836 8.79521
2 7.48808 1.934 1.79919
2 10.5034 6.45286 6.33545
2 6.7665 12.4672 1.6485
2 9.18965 8.95235 6.79643
2 4.2415 10.4721 2.82781
2 1.36988 4.44694 9.97813
2 10.1752 1.9003 1.6675
2 0.668075 9.09545 9.35128
2 8.63634 9.51616 1.4975
2 9.50234 3.42192 7.29528
2 5.66714 1.6366 4.36993
2 3.98354 3.96933 5.06454
2 8.01785 3.0712 10.1918
2 9.65299 7.11121 2.20826
2 2.49757 10.1967 11.5261
2 11.498 3.4817 3.25134
2 3.26731 2.55206 11.8598
2 2.91886 8.7404 4.82226
2 8.72098 12.679 11.4976
2 11.875 10.1831 0.78238
2 2.50104 0.68722 7.25954
2 13.0197 0.198199 12.9965
2 10.6878 0.0531655 6.33885
2 0.611319 11.8121 1.89302
2 11.1805 0.359594 11.341
2 0.976733 2.39022 12.1588
2 0.600177 0.200428 5.90508
2 0.640456 1.65102 1.59775
2 9.95644 11.5553 9.39725
2 1.53269 10.0866 2.80756
2 -0.278652 12.2238 8.17949
2 3.17885 12.6171 1.72076
2 1.67392 11.2934 9.19611
2 12.0206 11.2373 4.20683
2 9.93943 1.6139 8.78781
2 0.278367 9.40582 11.6612
2 2.70621 1.55103 4.81396
2 10.5456 2.21679 13.012
2 10.2189 8.7252 12.9813
2 10.5534 10.3224 11.5708
2 11.9948 1.10347 3.89409
2 1.86765 1.52829 9.42077
2 2.48547 11.7189 4.3215
1 10.3217 8.04682 6.55323
1 4.81692 11.8317 2.14673
1 0.509444 4.73109 8.20343
1 9.04319 1.65935 0.509287
1 0.158591 8.03393 8.36079
1 7.58155 10.8362 1.55048
1 10.4458 4.84591 6.73186
1 6.93367 1.1622 3.10253
1 2.72218 4.769 5.85427
1 6.99154 3.35418 11.4809
1 11.0197 7.3503 3.2443
1 4.12959 11.2247 12.432
1 12.3551 4.26665 4.35908
1 4.95305 1.61055 12.646
1 2.17551 7.71889 5.58276
1 7.0684 11.7864 11.6799
1 9.24745 8.20024 0.90474
1 1.45248 9.84437 10.4207
1 4.06374 2.34332 4.3806
1 8.8887 2.75051 8.86397
1 2.94358 10.2312 3.71917
1 10.3066 11.8612 11.0908
1 11.5224 2.08905 2.52308
1 1.96284 2.83407 10.7566
1 1.33713 0.345335 1.06427
1 10.724 -0.0955741 8.05765
1 12.4326 10.3765 2.43235
1 1.44874 0.150436 8.6348
1 11.4359 9.57946 12.7496
1 2.28602 0.460861 5.68011
1 11.9796 1.4879 12.2816
1 11.4786 12.6829 4.90367
96
 Atoms. Timestep: 16000
2 12.0475 9.25221 2.92774
2 3.59953 -0.0639903 10.9513
2 1.16226 4.41371 4.33926
2 7.24007 0.565469 11.5386
2 12.1268 4.84377 8.32571
2 8.34659 0.476384 0.193818
2 12.5234 7.61845 7.50855
2 5.09622 1.09484 1.88506
2 10.8741 7.51109 5.39225
2 3.89597 11.8521 0.0159655
2 1.90904 5.03149 6.58212
2 7.54825 2.60717 11.8042
2 2.05629 8.52181 7.39248
2 6.50834 10.9567 0.123155
2 11.3681 4.65397 5.57047
2 4.17643 1.67396 0.0763585
2 12.1795 6.53552 3.75442
2 5.36997 11.0669 11.3001
2 3.49595 6.41336 5.92324
2 5.34342 1.76902 10.4847
2 1.0147 6.04267 8.86067
2 7.32251 2.30717 1.44926
2 10.1751 6.55089 7.18611
2 7.0478 0.0279972 2.76422
2 10.4349 9.5717 7.79394
2 3.28196 12.1869 3.05398
2 1.71961 3.39253 9.52259
2 9.88525 1.9984 2.38804
2 1.74437 8.08746 9.99594
2 8.96623 10.7783 1.55181
2 9.66341 3.71765 7.37106
2 5.69698 2.12895 4.12154
2 3.85923 4.14513 5.11931
2 8.71051 1.89228 9.54535
2 9.90472 8.41671 3.23171
2 2.6493 9.89472 11.4131
2 11.8275 3.60646 3.52853
2 2.60169 2.09907 11.0044
2 3.00852 9.15816 4.64725
2 8.41063 11.0638 11.7443
2 -0.0172232 10.0597 0.654391
2 2.53727 12.5407 7.67276
2 11.8472 1.10474 13.1771
2 11.2555 11.449 6.60896
2 0.165351 12.2195 1.77806
2 10.6337 0.141555 11.3632
2 12.1962 2.07834 10.9183
2 0.899491 0.474376 6.26284
2 12.5974 1.59291 2.18249
2 10.5177 11.1613 9.4825
2 1.75419 10.4669 3.17401
2 12.3355 11.8784 8.94859
2 2.20954 1.2011 0.874055
2 1.70092 10.6942 9.63874
2 12.8897 11.4396 4.4153
2 9.96014 0.609965 7.83162
2 0.405532 8.52583 12.1417
2 3.30199 1.54686 5.74989
2 9.94462 2.55266 12.925
2 10.3425 8.89043 13.668
2 10.766 9.7765 11.6084
2 11.3509 0.940749 4.55971
2 1.87261 0.641237 9.52696
2 2.41754 11.3394 5.31953
1 10.934 8.05396 6.83411
1 3.50734 0.375263 1.36265
1 1.37654 4.63385 8.01703
1 8.35919 2.36798 0.0159062
1 1.06677 7.55159 8.46366
1 7.25062 11.7568 1.47784
1 10.8077 5.06994 6.98467
1 6.34418 1.40564 2.91341
1 2.51614 4.79937 5.18886
1 6.99295 1.78624 10.2425
1 11.3114 7.95634 3.89045
1 3.77412 11.1692 11.6166
1 12.1782 4.93378 4.21232
1 4.02337 1.5837 11.5639
1 3.01396 8.45949 6.06406
1 6.83069 11.7177 11.9337
1 9.41783 9.10763 1.60291
1 1.46753 9.28219 10.7214
1 4.56158 2.66917 5.29213
1 9.73867 2.29054 8.29985
1 2.9211 10.9416 3.95562
1 10.156 11.1508 11.0696
1 11.1102 2.04973 3.28823
1 1.33615 1.9947 10.0767
1 0.702758 0.940667 0.837289
1 10.7226 11.6527 7.95735
1 12.7956 10.7489 2.55282
1 1.19935 11.9275 8.93494
1 11.822 8.98692 12.9144
1 2.52272 0.269466 6.08978
1 10.9311 1.73718 11.8788
1 12.0265 12.3123 5.43806
96
 Atoms. Timestep: 18000
2 12.1315 8.75294 3.52813
2 3.68745 12.1325 11.5021
2 0.25611 5.11317 4.24521
2 7.317 0.608598 11.539
2 11.9544 4.07002 7.94871
2 8.87197 1.87645 1.43561
2 0.530237 8.53638 6.96149
2 4.68002 1.16438 2.56424
2 11.1209 7.78711 5.42003
2 4.49738 11.1525 0.419458
2 1.3006 4.16785 6.75129
2 7.23355 2.80231 12.7237
2 2.90828 7.74796 7.01866
2 7.69234 12.1007 0.751593
2 10.5735 4.0387 4.93031
2 4.42299 0.743905 13.2648
2 10.5933 5.88626 3.37376
2 5.9284 10.9265 12.2512
2 2.89488 6.31551 4.74899
2 5.31208 2.22871 11.1419
2 1.52766 5.8983 8.12825
2 7.16606 3.15379 2.05795
2 11.2609 1.47544 5.82993
2 6.989 0.848858 2.41252
2 10.349 10.0817 6.91291
2 4.32828 11.671 2.98464
2 1.14565 3.19683 9.07877
2 10.2328 0.56514 2.10991
2 1.55073 8.14623 9.27575
2 9.31578 11.2496 2.39977
2 9.96387 2.44314 7.16028
2 4.9048 2.64976 3.88227
2 3.2026 4.00081 5.02594
2 8.10365 2.83631 9.93445
2 9.69925 8.79674 3.30927
2 3.0618 9.61107 11.2549
2 11.1625 3.47467 2.37836
2 2.94938 2.30164 10.6249
2 4.08789 9.3762 4.92807
2 8.87689 11.3807 12.2093
2 0.152482 9.90353 1.26989
2 1.91365 12.4869 7.6567
2 12.5459 1.25904 13.0594
2 10.9393 11.9346 6.14982
2 12.126 11.8356 2.23213
2 10.5012 0.949217 11.0403
2 0.185127 2.81237 11.7559
2 0.977516 0.957891 5.69273
2 0.062703 1.27266 2.23905
2 9.56787 11.4389 9.58199
2 1.74812 10.1346 3.41602
2 12.0418 11.9356 8.04758
2 2.39006 0.586913 1.36294
2 1.22092 10.7552 9.86749
2 0.209057 11.8744 4.14659
2 9.1863 0.475203 8.36544
2 0.505092 9.79287 12.0735
2 3.3412 1.42991 5.94455
2 10.037 2.90485 0.020147
2 10.3652 8.93845 0.804444
2 11.0536 10.7129 11.6041
2 10.9005 0.846968 3.94584
2 1.03691 1.04747 9.61928
2 2.59845 11.1407 5.05347
1 11.5389 8.91351 6.37299
1 4.09945 12.5668 1.30901
1 0.751172 4.49304 8.32634
1 8.54426 3.14835 0.652277
1 1.49121 7.50933 7.7475
1 8.52473 0.259454 1.93909
1 11.2697 3.26409 6.40718
1 5.98305 2.20434 2.69781
1 1.75207 5.16064 5.19998
1 6.95196 2.30597 11.099
1 10.662 7.52515 3.80941
1 4.31966 10.5994 11.7596
1 11.3807 4.51416 3.53983
1 4.14962 1.21538 11.6994
1 3.81569 7.70352 5.51603
1 7.23717 11.7849 12.3542
1 9.37439 9.57143 2.05727
1 1.72961 9.31873 10.4613
1 3.74385 2.65121 5.02514
1 8.83874 2.02905 8.55177
1 3.51567 10.4795 3.8269
1 10.121 11.9185 11.0047
1 11.2356 1.87325 2.57552
1 1.4095 2.49665 10.4971
1 0.784692 0.239116 1.17561
1 10.2203 11.5157 7.79205
1 0.126327 10.4245 2.99945
1 1.004 12.1191 8.93192
1 11.554 9.647 12.9614
1 2.43828 12.7073 5.97565
1 11.2746 2.12001 12.3361
1 12.0991 0.0346447 5.25439
96
 Atoms. Timestep: 20000
2 12.6657 9.49925 3.36892
2 3.39744 0.364532 11.1733
2 1.20979 4.97764 4.10231
2 7.18293 0.219218 11.8083
2 11.7321 3.70815 7.38726
2 8.68249 0.301423 0.205639
2 12.2979 8.02896 7.87154
2 5.13477 1.08256 2.00077
2 11.5628 8.62558 5.41463
2 3.56581 12.4621 13.251
2 1.38871 4.66799 7.14457
2 8.12759 2.59673 12.4013
2 1.64488 8.01363 7.64801
2 8.35135 11.2019 0.534131
2 12.2732 4.3196 5.31283
2 3.74102 1.64068 12.6748
2 12.2657 6.43307 3.6547
2 5.5361 12.0694 12.3052
2 2.64678 6.46486 6.1499
2 5.67065 2.11976 10.4347
2 0.111541 6.22894 9.04418
2 7.20239 2.5037 1.29428
2 11.3985 1.77095 5.13473
2 8.27117 0.666665 2.64451
2 10.8285 10.1112 7.49864
2 4.23954 11.4185 3.59688
2 0.0933009 3.2508 9.18952
2 10.4575 0.917666 1.65829
2 1.1743 8.731 10.045
2 9.2846 10.4986 2.45953
2 9.94337 2.81051 7.00399
2 5.53745 1.37702 4.36004
2 3.15556 3.61368 5.41431
2 8.22964 1.28051 9.34039
2 10.2898 7.97475 2.97639
2 2.93832 10.6263 11.3836
2 12.5708 3.87558 2.65821
2 2.82166 2.36827 9.92629
2 2.63483 9.74301 5.42978
2 8.66464 11.1527 12.092
2 12.1745 10.1559 1.32685
2 1.52883 12.5854 7.69437
2 -0.1047 1.15879 0.0168458
2 10.534 11.4856 5.29395
2 1.077 11.8583 1.55781
2 10.6539 0.117376 11.7899
2 12.7392 2.33173 11.5961
2 0.160466 0.0162178 5.88619
2 0.319356 1.47193 1.92663
2 9.69119 11.5049 9.65632
2 1.64591 9.92848 3.35853
2 11.8427 11.3846 9.04104
2 2.69726 0.63302 1.58369
2 0.97365 11.1848 10.1023
2 12.041 11.6003 3.83275
2 9.20499 0.0142139 7.79405
2 0.211881 10.7318 12.3599
2 3.09451 1.18909 5.78691
2 10.016 2.43263 13.0767
2 10.2682 8.52868 0.414247
2 11.1247 10.4721 11.7536
2 11.94 0.895926 3.43589
2 0.97237 0.531569 10.007
2 2.08683 12.0131 4.58506
1 11.7129 8.90023 6.83514
1 4.17797 0.703246 0.641185
1 0.184679 4.53761 8.23802
1 8.55095 2.23599 0.376341
1 0.675595 7.72613 8.86549
1 9.04671 12.2842 1.84407
1 10.9642 3.12277 5.81666
1 6.6971 1.65198 2.84002
1 2.3206 5.27025 5.35073
1 7.4985 1.57421 10.9007
1 11.6277 7.96492 3.94765
1 3.91858 11.7816 11.9972
1 12.6115 4.90207 3.80586
1 4.18374 1.75421 10.8592
1 2.15285 8.12626 6.01197
1 7.14124 11.6667 12.6988
1 9.59057 8.96262 1.85533
1 1.21912 10.1191 11.1701
1 4.108 2.2725 4.90013
1 8.93227 1.93975 7.99016
1 3.02558 10.4268 3.82465
1 10.004 11.5273 11.1797
1 11.8254 2.05003 2.27382
1 0.934499 2.20659 10.1737
1 1.07368 0.394033 1.16576
1 10.4785 11.5867 8.20234
1 0.130069 10.8879 2.6118
1 0.221119 12.2553 9.0974
1 11.4986 9.80868 13.2334
1 1.83152 -0.0131534 5.99072
1 11.4457 1.50244 12.52
1 11.6402 0.0885703 5.03951
96
 Atoms. Timestep: 22000
2 0.301212 8.26978 3.31779
2 3.82409 0.175116 11.6847
2 0.328536 4.5194 4.10093
2 7.94136 0.219231 11.0008
2 12.2443 4.01564 7.80017
2 8.89391 0.785505 0.906887
2 12.3648 8.68114 7.56367
2 5.04281 0.259155 1.82894
2 10.615 8.40333 5.24254
2 4.00135 11.5345 0.338431
2 1.1325 4.62005 6.41994
2 7.74068 2.62716 12.0405
2 1.62179 8.38014 6.59738
2 7.55713 11.5808 0.558841
2 10.7402 4.56719 5.48791
2 3.57819 1.43414 0.102189
2 11.0558 6.24944 3.47656
2 5.97408 11.3041 11.9569
2 2.34184 6.13202 4.50855
2 5.85474 1.88134 11.8875
2 1.40608 6.50076 8.26244
2 7.38129 2.77618 1.30742
2 11.7144 2.72126 5.4182
2 7.05418 0.417757 2.21689
2 10.5597 10.4664 7.84344
2 3.80442 11.358 2.59839
2 1.30792 4.25084 9.52771
2 8.94005 0.55031 3.274
2 1.85287 8.92397 9.29479
2 9.36192 10.3218 2.00565
2 9.88378 3.30741 7.8047
2 5.18561 2.32967 3.1512
2 2.59571 3.70355 4.62005
2 7.87203 2.47023 9.92496
2 10.9852 8.07664 2.30247
2 3.66072 10.1477 11.1751
2 10.0602 3.28146 3.89895
2 3.1463 2.92625 11.0191
2 3.32122 9.08399 4.98856
2 9.01738 11.054 11.7527
2 12.2392 9.55414 1.15629
2 1.69567 -0.027347 7.24393
2 12.2841 2.16445 0.518732
2 11.1617 12.774 6.8479
2 12.4837 11.6992 2.33086
2 11.0582 0.563277 11.7818
2 12.5535 2.83195 11.3374
2 0.849217 0.129846 5.24468
2 11.3813 1.08356 2.65127
2 10.1756 11.7064 9.65702
2 2.19555 9.82124 3.32278
2 12.5639 12.1662 8.42592
2 1.71604 0.376689 1.52378
2 1.52697 11.7219 10.123
2 11.8328 10.81 4.12678
2 9.91026 0.873938 8.45922
2 0.968789 9.59814 11.8211
2 2.86417 1.00732 4.48106
2 10.31 2.4732 0.00118843
2 10.5779 9.4519 0.076842
2 11.5426 10.3304 11.7815
2 11.495 0.691067 4.91433
2 0.912369 1.66628 10.005
2 3.01344 11.2364 5.49587
1 10.9763 9.20783 6.71601
1 3.3855 12.4095 1.33041
1 1.00504 4.97749 8.0854
1 8.61742 2.34058 0.153139
1 1.14078 7.95892 8.06149
1 8.58931 12.0625 1.97875
1 11.0729 3.5757 6.73069
1 6.045 1.84112 1.85124
1 1.51589 4.81794 4.9061
1 6.94758 1.55201 10.8437
1 11.4907 7.69456 3.92076
1 4.46848 11.1831 12.0206
1 11.1059 4.63885 4.0247
1 4.29815 1.92653 11.9634
1 2.80972 7.62652 5.47353
1 7.65537 11.5971 12.1821
1 9.6935 8.8357 1.27933
1 2.1704 10.1792 10.4559
1 3.52737 2.30139 3.80003
1 8.70416 2.17556 8.45753
1 3.52231 10.4439 4.21885
1 10.6257 11.6591 11.2913
1 10.2671 1.43706 3.96903
1 1.68745 3.00249 10.4739
1 0.0504311 0.446441 1.32934
1 10.9582 11.9274 8.19333
1 0.594443 9.83387 2.92162
1 1.24261 0.423133 9.01194
1 12.2934 9.32317 12.8491